 +---------------------------------------------------------------+
 |                                                               |
 |        ####### #     # ####### ####### ####### ######         |
 |        #     # ##    # #          #    #       #     #        |
 |        #     # # #   # #          #    #       #     #        |
 |        #     # #  #  # #####      #    #####   ######         |
 |        #     # #   # # #          #    #       #              |
 |        #     # #    ## #          #    #       #              |
 |        ####### #     # #######    #    ####### #              |
 |                                                               |
 |        Linear-Scaling Ab Initio Total Energy Program          |
 |                                                               |
 |          Release for academic collaborators of ODG            |
 |                                             Version 3.5.9.8   |
 |                                                               |
 +---------------------------------------------------------------+
 |                                                               |
 |  Authors:                                                     |
 |  Jacek Dziedzic, Peter D. Haynes, Nicholas D. M. Hine,        |
 |  Arash. A. Mostofi, Mike C. Payne and Chris-Kriton Skylaris   |
 |                                                               |
 |  Contributors:                                                |
 |  J. Aarons, L. Andrinopoulos, P. W. Avraam, R. A. Bell,       |
 |  S. J. Clark, G. C. Constantinescu, F. Corsetti, N. Corsini,  |
 |  O. Dieguez, S. M. M. Dubois,  H. H. Helal,                   |
 |  Q. O. Hill, L. P. Lee, J.-H. Li, D. D. O`Regan,              |
 |  M. J. S. Phipps, C. J. Pickard, M. I. J. Probert,            |
 |  L. Ratcliff, M. Robinson, A. Ruiz Serrano, J. S. Spencer,    |
 |  G. Teobaldi, V. Vitale, K. A. Wilkinson and                  |
 |  T. J. Zuehlsdorff                                            |
 |                                                               |
 |                                   Copyright (c) 2004-2014     |
 |                                                               |
 |  Please cite:                                                 |
 |  "Introducing ONETEP: Linear-scaling density functional       |
 |   simulations on parallel computers".                         |
 |   C.-K. Skylaris, P. D. Haynes, A. A. Mostofi, M. C. Payne.   |
 |   J. Chem. Phys. 122 084119 (2005).                           |
 |                                                               |
 |          in all publications arising from your use of ONETEP. |
 |                                                               |
 +---------------------------------------------------------------+
 |                                                               |
 |   ONETEP is based on developments described in the following  |
 |   publications:                                               |
 |                                                               |
 |  "Nonorthogonal generalized Wannier function pseudopotential  |
 |   plane-wave method".                                         |
 |   C.-K. Skylaris, A. A. Mostofi, P. D. Haynes, O. Dieguez,    |
 |   M. C. Payne.                                                |
 |   Phys. Rev. B 66 035119 (2002).                              |
 |                                                               |
 |  "Preconditioned iterative minimization for linear-scaling    |
 |   electronic structure calculations".                         |
 |   A. A. Mostofi, P. D. Haynes, C.-K. Skylaris, M. C. Payne.   |
 |   J. Chem. Phys. 119(17), pp.8842-8848 (2003).                |
 |                                                               |
 |  "Total-energy calculations on a real space grid with         |
 |   localized functions and a plane-wave basis".                |
 |   A. A. Mostofi, C.-K. Skylaris, P. D. Haynes, M. C. Payne.   |
 |   Comput. Phys. Commun. 147, pp.788-802 (2002).               |
 |                                                               |
 |  "Accurate kinetic energy evaluation in electronic structure  |
 |   calculations with localized functions on real space grids"  |
 |   C.-K. Skylaris, A. A. Mostofi, P. D. Haynes, C. J. Pickard, |
 |   M. C. Payne.                                                |
 |   Comput. Phys. Commun. 140, pp.315-322 (2001).               |
 |                                                               |
 |  "Accurate ionic forces and geometry optimization in linear-  |
 |   scaling density-functional theory with local orbitals"      |
 |   N. D. M. Hine, M. Robinson, P. D. Haynes, C.-K. Skylaris,   |
 |   M. C. Payne, and A. A. Mostofi.                             |
 |   Phys. Rev. B 83 195102 (2011).                              |
 |                                                               |
 +---------------------------------------------------------------+

Job started: 09-03-2015 16:39 (-0000)
 
If your calculation crashes here, before "Reading parameters..."
is displayed, then your stack size is insufficient.
If so, use "ulimit -s unlimited" at runtime.

Reading parameters from file "water.dat" ...... done
Running on     3 processors.
There are   3 MPI processes running on the same node as the root process.
Each MPI process is using: 
             1 threads for simulation cell FFTs.
             1 threads for parallel FFT box operations.
             1 threads for loops over batched FFT box operations.
             1 threads in other parallel regions.
 
Reading geometry and species blocks from file "water.dat" ...    
  Number of PPD points along a3 set to 1 from input file.
... done
-------------------------------------------------------------------------------
---------------------------- RUN-TIME PARAMETERS ------------------------------
-------------------------------------------------------------------------------
task                         : SINGLEPOINT *! Type of calculation (String)      
cutoffenergy                 : 5.51234913367983      hartree *! Plane wave kine 
kernelcutoff                 : 1000.00000000000      bohr *! Density kernel rad 
xcfunctional                 : PBE *! Exchange-correlation functional (String)  
libxcxfuncid                 : 0 *! Functional identifier for which exchange fu 
libxccfuncid                 : 0 *! Functional identifier for which correlation 
charge                       : 0.000000000000000E+000 *! The total charge of th 
spin                         : 0 *! Total spin of system (Integer)              
spinpolarized                : F *! Switch for spin polarisation (Boolean)      
spinpolarised                : F *! Switch for spin polarisation (Boolean)      
constantefield               : 0.0000000000     0.0000000000     0.0000000000 * 
fftboxpref                   : 0 0 0 *! Preferred FFT box dimensions (String)   
ppdnpoints                   : 0 0 1 *! PPD edge length in grid points for each 
psincspacing                 : 0.0 0.0 0.0 *! PSINC grid spacing in atomic unit 
oldinput                     : F *! Read old-format input file (Boolean)        
develcode                    : *! For development code only (String)            
positionsxyzfile             : *! .xyz file to read positional data from (Strin 
positionsintermediatexyzfile : *! .xyz file to read positional data for interme 
positionsproductxyzfile      : *! .xyz file to read positional data for product 
nnho                         : F *! Initialise NGWFs to nonorthogonal natural h 
ngwfhalo                     : -1.00000000000000      bohr *! Halo extension to 
nonscforces                  : T *! Include non self-consistent forces due to N 
externalpressure             : 0.000000000000000E+000 ha/bohr**3 *! External ap 
smoothingfactor              : 5.00000000000000 *! Smoothing factor in volume t 
isosurfacecutoff             : 5.000000000000000E-004 *! Isosurface cutoff in v 
maxitpalsermano              : 50 *! Maximum number of iterations for Palser-Ma 
maxitkernelocccheck          : 0 *! Maximum number of kernel resets after occup 
maxitpen                     : 3 *! Max number of penalty functional iterations 
penparam                     : 4.00000000000000 *! Penalty functional parameter 
minitlnv                     : 10 *! Min number of LNV iterations (Integer)     
maxitlnv                     : 10 *! Max number of LNV iterations (Integer)     
lnvthresholdorig             : 1.000000000000000E-009 *! LNV convergence thresh 
lnvcgtype                    : LNV_FLETCHER *! Type of CG coefficient for LNV d 
lnvcgmaxstep                 : 3.00000000000000 *! Maximum length of trial step 
exactlnv                     : T *! Use original LNV algorithm (Boolean)        
oldlnv                       : F *! Use LNV algorithm backwards compatible pre  
lnvchecktrialsteps           : T *! Check stability of kernel at each trial ste 
kerfix                       : 1 *! Density kernel fixing approach (Integer)    
maxitkernelfix               : 3 *! Maximum # iterations of Penalty Functional  
initialdensrealspace         : T *! Construct initial density in real space fro 
kerneldiissize               : 10 *! Max number of kernels saved during kernel  
kerneldiismaxit              : 25 *! Max number of kernel DIIS iterations (Inte 
kerneldiisthreshold          : 1.000000000000000E-009 *! Density mixing converg 
kerneldiislineariter         : 5 *! Number of linear mixing iterations (Integer 
kerneldiiscoeff              : 0.100000000000000 *! Coefficient for the input k 
kerneldiisconvcriteria       : 1000 *! Density mixing convergence criteria (Str 
kerneldiislshift             : 1.00000000000000      hartree *! The initial val 
kerneldiislsiter             : 0 *! Maximum Level shifting iteration (Integer)  
kerneldiisscheme             : NONE *! Select scheme for kernel-diis (String)   
edft                         : F *! Use Ensemble-DFT method to optimise the ker 
edftmaxit                    : 10 *! Maximum number of EDFT iterations to optim 
edftmaxstep                  : 1.00000000000000 *! Maximum step during EDFT lin 
edftsmearingwidth            : 3.166811429000000E-003 hartree *! Occupancy smea 
edftfreeenergythres          : 1.000000000000000E-006 hartree *! Convergence th 
edftenergythres              : 1.000000000000000E-004 hartree *! Convergence th 
edftentropythres             : 1.000000000000000E-004 hartree *! Convergence th 
edftrmsgradientthres         : 1.000000000000000E-004 *! Convergence threshold  
edftcommutatorthres          : 1.000000000000000E-005 hartree *! Convergence th 
edftfermithres               : 1.000000000000000E-003 hartree *! Convergence th 
edftwriteocc                 : F *! Generate file with smeared occupancies (Boo 
edftextrabands               : -1 *! Number of additional MOs with non-zero occ 
eigensolverorfac             : 1.000000000000000E-004 *! Precision to which the 
eigensolverabstol            : 1.000000000000000E-009 *! Precision to which the 
writehamiltonian             : F *! Save current Hamiltonian matrix in a file ( 
readhamiltonian              : F *! Read current Hamiltonian matrix from a file 
ngwfcgrotate                 : F *! Rotate density kernel during NGWF optimizat 
edftroundevals               : -1 *! Round EDFT eigenvalues to N decimal figure 
maxitngwfcg                  : 100 *! Max number of NGWF conjugate gradients (C 
ngwfcgtype                   : NGWF_FLETCHER *! Type of CG coefficient for NGWF 
ngwfcgmaxstep                : -8.00000000000000 *! Maximum length of trial ste 
eleccgmax                    : 3 *! Number of NGWF iterations to reset CG (Inte 
precondscheme                : TETER *! Recip-space preconditioning scheme (Str 
kzero                        : 3.00000000000000      1/bohr *! KE preconditioni 
rprecond                     : 2.00000000000000      bohr *! Radial cut-off for 
precondrecip                 : T *! Recip-space KE preconditioning (Boolean)    
precondreal                  : F *! Real-space KE preconditioning (Boolean)     
smoothscheme                 : NONE *! Smoothing scheme for the NGWF gradients  
rsmooth                      : 1.50000000000000      bohr *! Radius of the unsh 
ksmooth                      : 5.00000000000000      1/bohr *! Characteristic w 
occmix                       : 0.250000000000000 *! Mix fraction of occupancy p 
kernelupdate                 : F *! Update density kernel during NGWF line sear 
kernelchristoffelupdate      : F *! Update density kernel during NGWF line sear 
maxithotelling               : 100 *! Number of Hotelling iteration per NGWF ch 
maxresidhotelling            : 1.000000000000000E-012 *! Max allowed value in H 
rmskernelmeasure             : F *! Use root mean squared measure of [K,H] comm 
maxitngwfdiis                : 0 *! Max number of NGWF DIIS steps (Integer)     
ngwfdiissize                 : 4 *! Max size of the DIIS iterative subspace (In 
ngwfdiisreset                : 8 *! Max number of iteration for the resetting o 
ngwfdiismaxstep              : 2.00000000000000 *! Max length of trial step for 
ngwfthresholdorig            : 1.837500000000000E-006 *! NGWF convergence thres 
elecenergytol                : 3.674899422453221E-005 hartree *! Tolerance on t 
elecforcetol                 : -1.000000000000000E-003 ha/bohr *! Tolerance on  
ngwfmaxgrad                  : -2.000000000000000E-005 *! Maximum permissible v 
deltaeconv                   : T *! Use consecutive energy gains as a criterion 
kernelforceconv              : F *! Force density kernel convergence on last NG 
fftboxbatchsize              : 16 *! Number of NGWFs in fftbox batches (Integer 
densethreshold               : 0.400000000000000 *! Threshold for matrix segmen 
commsgroupsize               : -1 *! Number of nodes in a group (determines com 
ovlpfornonlocal              : F *! Overlap sparsity for nonlocal (Boolean)     
usespacefillingcurve         : T *! Re-arrange atoms according to space-filling 
corehamdenskernguess         : T *! Initial guess for density kernel from core  
checkatoms                   : T *! Check atoms on top of each other (Boolean)  
locpotscheme                 : FULL *! Scheme for evaluating local potential ma 
smoothprojectors             : -0.400000000000000 *! Halfwidth of Gaussian filt 
smoothlocpspot               : -0.400000000000000 *! Halfwidth of Gaussian filt 
oddpsincgrid                 : F *! Force odd number of points in simcell psinc 
evenpsincgrid                : F *! Force even number of points in simcell psin 
realspaceprojectors          : F *! Whether to evaluate and store projectors in 
projectorsprecalculate       : T *! Whether to pre-calculate the nonlocal proje 
outputdetail                 : VERBOSE *! Level of output detail (String)       
pawoutputdetail              : DEFAULT *! Level of output detail for PAW: BRIEF 
mdoutputdetail               : DEFAULT *! Level of output detail for MD: BRIEF, 
timingslevel                 : 1 *! Level of timings output: 0(none) 1(nodes su 
timingsorder                 : TIME *! Sorting order of timings (String)        
runtime                      : -1.00000000000000 *! The maximum allocated run t 
writeparams                  : T *! Output runtime parameters at startup (Boole 
esdfdump                     : T *! Dump all runtime parameters at startup (Boo 
writeforces                  : T *! Write ionic forces (Boolean)                
writepositions               : T *! Write ionic positions each geometry or MD s 
writevelocities              : F *! Write ionic velocities each MD step (Boolea 
writexyz                     : F *! Output coordinates in .xyz file (Boolean)   
printqc                      : F *! Print Quality Control information (Boolean) 
cubeformat                   : T *! Allow .cube format for plot outputs (Boolea 
dxformat                     : F *! Allow .dx format for plot outputs (Boolean) 
dxformatcoarse               : F *! Output only points on the coarse grid (Bool 
dxformatdigits               : 7 *! Number of significant digits in .dx output  
grdformat                    : F *! Allow .grd format for plot outputs (Boolean 
writedensityplot             : F *! Write the charge density in plotting format 
writepolarisationplot        : F *! Write the polarisation density in plotting  
writengwfplot                : F *! Write NGWFs in plotting format (Boolean)    
writengwfgradplot            : F *! Write NGWF Gradients in plotting format (Bo 
writengwfradial              : 0 *! Write NGWFs radial distributions (Integer)  
writengwfgradradial          : 0 *! Write NGWFs gradients radial distributions  
writeradialstep              : 5.000000000000000E-003 bohr *! Define the grid s 
writeradialsmear             : 1.000000000000000E-002 bohr *! Define the gaussi 
writeinitialradialngwfs      : F *! Controls output of radial NGWF plots from a 
readdenskern                 : F *! Read density kernel restart information (Bo 
writedenskern                : T *! Write density kernel restart information (B 
readtightboxngwfs            : F *! Read in universal tightbox NGWFs restart in 
writetightboxngwfs           : T *! Write in universal tightbox NGWFs restart i 
writeconvergeddkngwfs        : F *! Only write Density Kernel and NGWFs upon co 
readswngwfs                  : F *! Read NGWFs restart information in spherical 
writeswngwfs                 : F *! Write NGWFs restart information in spherica 
writemaxl                    : 3 *! Maximum angular momentum number when writin 
readmaxl                     : 3 *! Maximum angular momentum number when readin 
extransw                     : 0 *! Maximum number of zeros of the sph Bessel f 
paw                          : F *! Uses a PAW construction to find correct cor 
finegridscale                : 2.00000000000000 *! Ratio of size of fine grid t 
dblgridscale                 : 2.00000000000000 *! Ratio of charge density / po 
augfuncsrecip                : T *! Construct Augmentation functions in recip s 
pseudopath                   : *! Path to pseudopotentials (String)             
dispersion                   : 0 *! Select dispersion correction (String)       
vdwdcoeff                    : -1.00000000000000 *! Replacement VDW damping coe 
hubbardmaxiter               : 10 *! Maximum number of DFT+U projector optimisa 
hubbardenergytol             : 1.000000000000000E-008 hartree *! Energy toleran 
hubbardconvwin               : 2 *! Energy convergence window when using DFT+U  
hubbardprojmixing            : 0.000000000000000E+000 *! Proportion of old Hubb 
hubbardfunctional            : 1 *! DFT+U energy functional to use (Integer)    
hubbardtensorcorr            : 1 *! DFT+U projector tensorial correction to use 
hubbardngwfspinthreshold     : 2.000000000000000E-005 *! NGWF RMS  gradient thr 
hubbardscfonthefly           : F *! Carry out on-the-fly HUBBARDSCF with new pr 
hubbardreadprojectors        : F *! Logical to read Hubbard-projectors from fil 
cdftatomcharge               : F *! Perform an ATOM-CHARGE-constrained CDFT sim 
cdftatomspin                 : F *! Perform an ATOM-SPIN-constrained CDFT simul 
cdftgroupchargediff          : F *! Perform a GROUP-CHARGE-DIFFERENCE-constrain 
cdftgroupspindiff            : F *! Perform a GROUP-SPIN-DIFFERENCE-constrained 
cdftgroupchargeacceptor      : F *! Perform an ACCEPTOR GROUP-CHARGE-constraine 
cdftgroupchargedonor         : F *! Perform a DONOR GROUP-CHARGE-constrained CD 
cdftgroupspinacceptor        : F *! Perform an ACCEPTOR GROUP-SPIN-constrained  
cdftgroupspindonor           : F *! Perform a DONOR GROUP-SPIN-constrained CDFT 
cdfthubbard                  : F *! Perform a constrained-DFT+U simulation (Boo 
cicdft                       : F *! Perform a CONFIGURATION-INTERACTION CDFT si 
cdftprintallocc              : F *! Logical to have the occupancy-matrix of all 
cdftreadprojectors           : F *! Logical to read cDFT-projectors from file ( 
cdftgroupchargeuponly        : F *! Logical to constrain only UP electrons (Boo 
cdftgroupchargedownonly      : F *! Logical to constrain only UP electrons (Boo 
cdftmultiproj                : F *! Logical to use mutiple angular-momentum pro 
cicdftnumconf                : 0 *! Number of cDFT-configurations for CI_CDFT s 
cdftgroupchargedifftarget    : 0.000000000000000E+000 *! Targeted CHARGE differ 
cdftgroupspindifftarget      : 0.000000000000000E+000 *! Targeted SPIN differen 
cdftchargeacceptortarget     : 0.000000000000000E+000 *! Targeted group-CHARGE  
cdftchargedonortarget        : 0.000000000000000E+000 *! Targeted group-CHARGE  
cdftspinacceptortarget       : 0.000000000000000E+000 *! Targeted group-SPIN fo 
cdftspindonortarget          : 0.000000000000000E+000 *! Targeted group-SPIN fo 
maxitcdftucg                 : 60 *! Max number of cdFT-U conjugate gradients ( 
cdftcgtype                   : NGWF_FLETCHER *! Type of CG coefficient for CDFT 
cdftcgthreshold              : 1.000000000000000E-003 *! RMS gradient convergen 
cdfttriallength              : 0.100000000000000 *! Trial length for cDFT line- 
cdftcgmax                    : 5 *! Number of U-opt iterations to reset CG (Int 
cdftmaxgrad                  : 1.000000000000000E-003 *! Maximum permissible va 
cdftelecenergytol            : -1.000000000000000E-004 hartree *! Tolerance on  
cdftcgmaxstep                : 50.0000000000000 *! Maximum length of trial step 
cdftguru                     : F *! Let the user signal she/he does not need he 
cdftcontinuation             : F *! Logical to restart (from the *.cdft file) a 
cdfttight                    : F *! Logical to activate tight NGWFs-cDFT optimi 
cdftwritepotentials          : T *! Logical to write cDFT-potentials into file  
coulombcutoffradius          : 0.000000000000000E+000 bohr *! Radius of sphere  
coulombcutofflength          : 0.000000000000000E+000 bohr *! Length of cylinde 
coulombcutofftype            : NONE *! Type of cutoff coulomb interaction: NONE 
coulombcutoffwriteint        : F *! Write real-space cutoff Coulomb interaction 
pbccorrectioncutoff          : 0.000000000000000E+000 bohr *! alpha*L cutoff pa 
doproperties                 : T *! Allow calculation of properties (Boolean)   
numeigenvalues               : 6 *! Number of energy and occupancy eigenvalues  
homodensplot                 : -1 *! Number of squared MOs to plot from HOMO an 
lumodensplot                 : -1 *! Number of squared MOs to plot from LUMO an 
homoplot                     : -1 *! Number of MOs to plot from HOMO and lower  
lumoplot                     : -1 *! Number of MOs to plot from LUMO and higher 
dossmear                     : 3.674899422453221E-003 hartree *! Half width of  
ldossmear                    : 3.674932438755288E-003 hartree *! Lorentzian bro 
popncalculate                : F *! Allow population analysis (Boolean)         
popnbondcutoff               : 5.66917840375065      bohr *! Bond length cutoff 
ngwfanalysis                 : F *! Perform NGWF analysis (Boolean)             
polarisationcalculate        : F *! Allow calculation of polarisation (Boolean) 
spreadcalculate              : F *! Calculate spread of NGWFs (Boolean)         
anharmoniccalculate          : F *! Active the calculation of the IR spectrum ( 
geommodulusest               : 1.700000000000000E-002 ha/bohr**3 *! The estimat 
geomfrequencyest             : 7.600000000000000E-003 hartree *! The estimated  
geomenergytol                : 3.674899422453221E-007 hartree *! Geometry optim 
geomforcetol                 : 5.834023153688738E-004 ha/bohr *! Geometry optim 
geomdisptol                  : 1.889726877774356E-003 bohr *! Geometry optimiza 
geommaxiter                  : 100 *! Maximum number of geometry optimization i 
geomconvergencewin           : 2 *! Geometry optimization convergence tolerance 
geomcontinuation             : F *! Read information for continuation of a prev 
geombackupiter               : 1 *! Number of geometry optimisation iterations  
geomresetdkngwfsiter         : 6 *! Number of geom iterations between resets of 
geomlbfgsmaxupdates          : 30 *! Number of LBFGS update vectors to store (I 
geomlbfgsblocklength         : 30 *! How many updates to store before reallocat 
geomreusedkngwfs             : T *! Re-use density kernel and NGWFs during geom 
geomprintinvhessian          : F *! Write inverse Hessian to standard output (B 
geommethod                   : CARTESIAN *! Method for geometry optimization (S 
geomlbfgs                    : F *! Whether to perform LBFGS rather than BFGS i 
tssearchmethod               : LSTQST *! Specifies method to be used for TS sea 
tssearchlstqstprotocol       : LSTMAXIMUM *! Specifies LSTQST protocol (String) 
tssearchqstmaxiter           : 5 *! Specifies maximum number of QST steps (Inte 
tssearchcgmaxiter            : 20 *! Specifies maximum number of CG steps (Inte 
tssearchforcetol             : 5.000000000000000E-003 ha/bohr *! Force toleranc 
tssearchdisptol              : 1.000000000000000E-002 bohr *! Displacement tole 
mdproperties                 : F *! Compute vibrational and IR spectra from MD  
mdrestart                    : F *! Restart MD from backup files (Boolean)      
mddeltat                     : 40.0000000000000      aut *! Molecular dynamics  
mdnumiter                    : 100 *! Maximum number of molecular dynamics iter 
mdresethistory               : 100 *! Reset mixing scheme for initial guess of  
mtsxi                        : F *! Internal thermostat in the multiple time-st 
mtsnstep                     : 1 *! Number of time steps in the multiple time-s 
mtsngwfthreshold             : 5.000000000000000E-004 *! NGWF convergence thres 
mtslnvthreshold              : 5.000000000000000E-006 *! LNV convergence thresh 
mtselecenergytol             : -1.000000000000000E-003 hartree *! Tolerance on  
mtselecforcetol              : -1.000000000000000E-003 ha/bohr *! Tolerance on  
mtsngwfmaxgrad               : -2.000000000000000E-005 *! Maximum permissible v 
mtsmaxitngwfcg               : 50 *! Max number of conjugate gradients iteratio 
mtsminitlnv                  : 5 *! Min number of LNV iterations (Integer)      
mtsmaxitlnv                  : 5 *! Max number of LNV iterations (Integer)      
mtsmaxitpen                  : 3 *! Max number of penalty iterations (Integer)  
mtsmixinc                    : F *! Include the mts correction step in the NGWF 
mixdkntype                   : NONE *! Type of mixing used to build new guess f 
mixdknnum                    : 0 *! Number of coefficients used to build new gu 
mixdkninittype               : NONE *! Type of initialization before MIX_DKN_TY 
mixdkninitnum                : 0 *! Number of steps before extrapolation of the 
mixdknreset                  : 50 *! Number of extrapolation steps between two  
mixngwfstype                 : NONE *! Type of mixing used to build new guess f 
mixngwfsnum                  : 0 *! Number of coefficients used to build new gu 
mixngwfsinittype             : NONE *! Type of initialization before MIX_DKN_TY 
mixngwfsinitnum              : 0 *! Number of steps before extrapolation of the 
mixngwfsreset                : 50 *! Number of extrapolation steps between two  
mixngwfscoeff                : 0.100000000000000 *! Mix the propagated NGWFs wi 
mixlocallength               : 10.0000000000000      bohr *! Max radius for loc 
mixlocalsmear                : 5.00000000000000      bohr *! Radial smearing fo 
condreaddenskern             : F *! Read in conduction density kernel (Boolean) 
condreadtightboxngwfs        : F *! Read in universal tightbox conduction NGWFs 
condfixedshift               : F *! Fixed projected conduction Hamiltonian shif 
condcalcmaxeigen             : T *! Calculate maximum conduction Hamiltonian ei 
condnumstates                : 0 *! Number of conduction states to be optimised 
condmaxitlnv                 : 10 *! Max number of LNV iterations during conduc 
condminitlnv                 : 10 *! Min number of LNV iterations during conduc 
condkernelcutoff             : 1000.00000000000      bohr *! Conduction density 
condinitshift                : 0.000000000000000E+000 hartree *! Initial shifti 
condshiftbuffer              : 0.100000000000000      hartree *! Additional buf 
condnumextrastates           : 0 *! Number of extra conduction states for initi 
condnumextraits              : 0 *! Number of NGWF iterations with extra conduc 
condplotjointorbitals        : T *! Plot orbitals in the joint basis following  
condplotvcorbitals           : T *! Plot orbitals in the val and cond NGWF basi 
condcalcopticalspectra       : F *! Calculate matrix elements for optical absor 
condspeccalcmommatels        : T *! Calculate momentum matrix elements (default 
condspeccalcnonloccomm       : T *! Calculate nonlocal commutator for momentum  
condspeccontderiv            : T *! Calculate non-local commuator using continu 
condspecnonloccommshift      : 1.000000000000000E-004 *! Finite difference shif 
condspecprintmatels          : F *! Write optical matrix elements to file (Bool 
condspecoptsmear             : 3.674932438755288E-003 hartree *! Half width of  
condspecscissorop            : 0.000000000000000E+000 hartree *! Scissor operat 
condcalceels                 : F *! Calculate matrix elements for electron ener 
lrtddftcalculate             : F *! enables LR-TDDFT calculation (Boolean)      
lrtddftnumstates             : 1 *! Sets the number of excitation energies we w 
lrtddftcgthreshold           : 1.000000000000000E-006 *! sets convergence toler 
lrtddftpenaltytol            : 1.000000000000000E-008 *! sets the convergence t 
lrtddftmaxitpen              : 20 *! sets the maximum number of iterations for  
lrtddftmaxitcg               : 60 *! sets the maximum number of iterations for  
lrtddftresetcg               : 100 *! sets the number of iterations after which 
lrtddftkernelcutoff          : 1000.00000000000      bohr *! sets cutoff on the 
lrtddftwritedensities        : T *!Determines whether to write out TDDFT respon 
lrtddftwritekernels          : F *! writes out response kernels after each iter 
lrtddftrestart               : F *! Restart flag for the LR_TDDFT option (Boole 
lrtddfttriplet               : F *! DEtermines if triplet states are calculated 
lrtddftprojector             : T *! Use projector onto unoccupied subspace (Boo 
lrtddftjointset              : T *! Use joint set to represent cond states (Boo 
lrtddftpreopt                : T *! Refine starting guess in preoptimisation ro 
lrtddftpreoptiter            : 20 *! Number of preoptimisation iterations (Inte 
lrtddftanalysis              : F *! Do a full O(N^3) analysis of TDDFT transiti 
etransbulk                   : F *! Compute electronic transport coefficients ( 
etranslcr                    : F *! Compute electronic transport coefficients ( 
etranssameleads              : F *! Use same description for all leads (Boolean 
etranswritehs                : F *! Write hamiltonian corresponding to transpor 
etransecmplx                 : 1.000000000000000E-006 hartree *! Imaginary part 
etransemax                   : 0.200000000000000      hartree *! Highest energy 
etransemin                   : -0.200000000000000      hartree *! Lowest energy 
etransenum                   : 50 *! Number of energy points for the calculatio 
etranseref                   : 0.000000000000000E+000 hartree *! Reference ener 
etranserefmethod             : DIAG *! The method used to determine the referen 
etranscalculateleadmu        : F *! Calculate the lead chemical potentials (Boo 
etransleadnkpoints           : 32 *! Number of kpoints to use to determine lead 
etransleaddisptol            : 1.00000000000000      bohr *! The maximum accept 
anhqcfactor                  : HARMONIC *! Quantum correction factor in IR spec 
anhacffactor                 : NONE *! Prefactor for the autocorrelation functi 
anhtype                      : IR_CALCULATION *! Describe the type of calculati 
anhfirstiter                 : 0 *! First md iteration to include in the autoco 
anhlastiter                  : 0 *! Last md iteration to include in the autocor 
anhmdtemp                    : 0.000000000000000E+000 kelvin *! Temperature in  
anhplotfirstfreq             : 0.000000000000000E+000 1/cm *! First freq to be  
anhplotlastfreq              : 0.000000000000000E+000 1/cm *! Last freq to be s 
anhplotall                   : F *! Plot the whole IR spectrum (Boolean)        
anhapplyfilter               : F *! Apply the gaussian filter (Boolean)         
phononfarmingtask            : 0 *! Operation to perform for phonon calc (for t 
phononsampling               : 1 *! Default number of sampling points for finit 
phononvibfree                : 7 *! Default allowed vibrational degrees of free 
phononfinitedisp             : 0.100000000000000      bohr *! Amplitude of the  
phononfmax                   : 5.000000000000000E-003 ha/bohr *! Maximum force  
phononenergycheck            : F *! Check total energy of system doesn't decrea 
phonontmin                   : 0.000000000000000E+000 hartree *! Lower bound of 
phonontmax                   : 2.000000000000000E-003 hartree *! Upper bound of 
phonondeltat                 : 1.500000000000000E-005 hartree *! Temperature st 
phononminfreq                : 3.600000000000000E-006 hartree *! Discard phonon 
phononwriteeigenvecs         : F *! Write phonon mode eigenvectors to file (Boo 
phononanimatescale           : 1.00000000000000 *! Scaling factor for phonon mo 
phonondosmin                 : 0.000000000000000E+000 *! Lower bound of frequen 
phonondosmax                 : 1000.00000000000 *! Upper bound of frequency ran 
phonondosdelta               : 10.0000000000000 *! Frequency step (in cm^-1) fo 
phonondos                    : T *! Calculate phonon DOS from MP grid and write 
phononsk                     : F *! Use Slater-Koster style interpolation for q 
bskpointpathspacing          : 0.188972700000000      1/bohr *! K-point spacing 
bsnumeigenvalues             : -1 *! Num of energy and occ. eigenvalues to prin 
bsunfold                     : 0 0 0 *! Number of times to unfold Brillouin zon 
bsmethod                     : TB *! Method to use: 'KP' or 'TB' (String)       
dotddft                      : F *! Allow Time-Dependent DFT calculation (Boole 
tddftmaximumenergy           : 1.00000000000000      hartree *! Desired maximum 
tddftresolution              : 1.000000000000000E-003 hartree *! Desired resolu 
tddftpropagationmethod       : CRANKNICHOLSON *! Method used to integrate von N 
tddftsparsitylevel           : 0 *! Matrix sparsity when computing propagators  
tddfttammdancoff             : F *! Invoke Tamm-Dancoff decoupling approximatio 
tddftdipolekickstrength      : 0.0 0.0 0.0 *! Maximum allowed phase shift in TD 
tddftxcfunctional            : LDA *! Exchange-correlation functional for TDDFT 
tddfthamiltonianmixing       : 0 *! Order of polynomial extrapolation to H(t +  
tddftdamping                 : 0.000000000000000E+000 hartree *! Energy smearin 
tddftenforcedidempotency     : F *! Project out at each timestep that part of c 
tddftmaxithotelling          : 50 *! Number of Hotelling iteration per propagat 
tddftmaxresidhotelling       : 1.000000000000000E-018 *! Max allowed value in H 
tddftinvoverlapexact         : T *! Renew inverse overlap with O N^3 algorithm  
isimplicitsolvent            : F *! Use implicit solvent? (Boolean)             
issmearedionrep              : F *! Implicit solvent: use smeared ions for elec 
isseparaterestartfiles       : F *! If true, dielectric cavity will be construc 
isautosolvation              : F *! If true, vacuum calculation will automatica 
isincludecavitation          : F *! Implicit solvent: include cavitation energy 
isdensitythreshold           : 7.800000000000000E-004 *! Implicit solvent: rho_ 
issolvationbeta              : 1.30000000000000 *! Implicit solvent: beta param 
isbulkpermittivity           : 1.00000000000000 *! Implicit solvent: eps_inf pa 
ismultigriddefecterrortol    : 1.000000000000000E-002 *! Implicit solvent: stop 
ismultigriderrortol          : 1.000000000000000E-005 *! Implicit solvent: stop 
issmearedionwidth            : 0.800000000000000      bohr *! Implicit solvent: 
iscorewidth                  : 1.20000000000000      bohr *! Implicit solvent:  
issurfacethickness           : 2.000000000000000E-004 *! Implicit solvent: thic 
issolventsurfacetension      : 4.762400000000000E-005 ha/bohr**2 *! Implicit so 
ismultigridmaxiters          : 100 *! Implicit solvent: max number of iteration 
ismultigridnlevels           : 4 *! Implicit solvent: number of levels in multi 
isdiscretizationorder        : 8 *! Implicit solvent: discretization order (2nd 
isbccoarseness               : 5 *! Open BCs: controls boundary condition coars 
isbcsurfacecoarseness        : 1 *! Open BCs: controls boundary condition coars 
isbcthreshold                : 1.000000000000000E-009 *! Open BCs: controls bou 
ischecksolvenergygrad        : F *! Implicit solvent: sanity check the energy g 
issolvationmethod            : DIRECT *! Implicit solvent: direct or corrective 
isdielectricmodel            : FIX_INITIAL *! Implicit solvent: how the cavity  
isdielectricfunction         : FGF *! Implicit solvent: how the cavity is deter 
issolvationoutputdetail      : NONE *! Implicit solvent: controls extra output  
openbcionion                 : F *! Force open BCs in ion-ion energy (Boolean)  
openbchartree                : F *! Force open BCs in Hartree potential (Boolea 
openbcpspot                  : F *! Force open BCs in local pseudopotential (Bo 
openbcpspotfinetunenptsx     : 100000 *! Open BCs in local pseudo, npts_x param 
openbcpspotfinetunealpha     : 0.300000000000000 *! Open BCs in local pseudo, a 
openbcpspotfinetunef         : -1 *! Open BCs in local pseudo, fineness paramet 
hfxintegration               : 2 *! Variant of the numerical pointwise approach 
hfxcutoff                    : 1000.00000000000      bohr *! HFx cutoff radius  
hfxnlppforexchange           : F *! Give exchange matrix same sparsity as non-l 
hfxradialsegments            : 50 *! Number of radial segments in vmatrix evalu 
hfxangularsegments           : 50 *! Number of angular segments in vmatrix eval 
hfxcheborder                 : 16 *! Order for Chebyshev interpolation (Integer 
hfxchebintervals             : 14 *! Number of intervals Chebyshev interpolatio 
hfxchebabatchsize            : 10 *! Number of SW expansions buffered (Integer) 
hfxchebbbatchsize            : 10 *! Number of SW pot expansions buffered (Inte 
hfxmaxl                      : 4 *! Maximum quantum number l used for SW expans 
hfxmaxzeros                  : 10 *! Maximum number of Bessel zeros used for SW 
hfxreadvmatrix               : F *! Read restart information for the V matrix ( 
hfxwritevmatrix              : F *! Write restart information for the V matrix  
hfxreadxmatrix               : F *! Read restart information for the X matrix ( 
hfxwritexmatrix              : F *! Write restart information for the X matrix  
hfxdebug                     : F *! Debug HFx? (Boolean)                        
hfxmetric                    : ELECTROSTATIC *! Electrostatic or overlap metric 
hfxoverlapindirect           : F *! Inversions done for overlap metric (Boolean 
hfximproveinverse            : F *! Use Hotelling improvement when calculating  
hfxcthreshold                : 0.000000000000000E+000 *! Absolute magnitude bel 
hfxcachelimitforsnpos        : 1024 *! Max cache size for SWOP-NGWF-product ove 
hfxcachelimitforswops        : 1024 *! Max cache size for SWs or SWpots in PPDs 
hfxcachelimitforwmats        : 1024 *! Max cache size for W-matrices (in MiB) ( 
hfxcachelimitforexpansions   : 1024 *! Max cache size for expansions (tb_swpot_ 
hfxcachelimitforps           : 1024 *! Max cache size for p_beta_delta (in MiB) 
hfxcachelimitforngwfs        : 256 *! Max cache size for remote NGWFs (in MiB)  
hfxcachelimitfordknblks      : 50 *! Max cache size for remote DKN blocks (in M 
zerototalforce               : T *! Subtract avg force to ensure Newton's 3rd l 
ddeccalculate                : F *! Performs DDEC charge analysis (Boolean)     
ddecwriterad                 : F *! Write DDEC partial radial density for each  
ddecclassicalhirshfeld       : F *! DDEC range of IH (+/-) ionic reference stat 
ddecradnpts                  : 100 *! Number of spherical shells per atom (Inte 
ddecradrcut                  : 10.0000000000000      bohr *! Radius of largest  
ddecmaxit                    : 2000 *! Maximum number of DDEC iterations (Integ 
ddecconvthreshold            : 2.000000000000000E-005 *! DDEC charge convergenc 
ddecihfraction               : 0.214285714285714 *! DDEC IH fraction (Double Pr 
ddeczerothreshold            : 1.000000000000000E-007 *! DDEC threshold to negl 
ddecihionicrange             : 2 *! DDEC range of IH (+/-) ionic reference stat 
ddecatomsolvemaxit           : 480 *! Maximum number of iterations for the atom 
ddecrcompmaxit               : 50 *! Maximum number of iterations for finding r 
ddectargetradius             : 11.5000000000000      bohr *! DDEC force target  
ddecrcompeconv               : 5.000000000000000E-008 hartree *! Energy converg 
ddecwritercomp               : F *! Write compensated ionic densities for all r 
ddecrefdensinit              : T *! Initialize ISA guess densities as neutral r 
ddecrenormalizerefdens       : F *! Renormalize reference densities (Boolean)   
ddecmultipole                : F *! Compute DDEC dipoles and quadrupoles (Boole 
ddecmoment                   : F *! Compute DDEC moment (Boolean)               
ddecmomentorder              : 1 *! Order of DDEC moment (Integer)              
ddecinterpraddens            : F *! Interpolate converged radial densities for  
ddecavgrad                   : F *! Compute expected radius of each atom based  
ddecminshelldens             : 100.000000000000 *! Minimum number of points per 
ddecrmse                     : F *! Calculate DDEC point charge RMS V(r) (Boole 
writenbo                     : F *! Performs Natural Population Analysis and wr 
nboinitlclowdin              : T *! Performs atom-centered Lowdin symmetric ort 
nbowritelclowdin             : F *! Write a GENNBO FILE.47 containing all the a 
nbowritenpacomp              : F *! Writes individual NAO population into the s 
nboscaledm                   : T *! Scales density matrix in the FILE.47 output 
nbowritedipole               : F *! Writes dipole matrix to FILE.47 (Boolean)   
nboscalespin                 : T *! Whether or not partial density matrices for 
nbopnaoanalysis              : F *! S/P/D/F CHARACTER ANALYSIS ON PNAO. (Boolea 
nboaopnaoscheme              : ORIGINAL *! AO to PNAO scheme to use in generati 
plotnbo                      : F *! Plot NBO's orbitals from FILE.xx as defined 
nboplotorbtype               : *! Type of GENNBO-generated orbital to plot. (St 
threadsmax                   : 1 *! Number of threads in outer loops (Integer)  
threadsnumfftboxes           : 1 *! Number of threads to use in OpenMP-parallel 
threadsperfftbox             : 1 *! Number of nested threads used for FFT box o 
threadspercellfft            : 1 *! Number of threads to use in OpenMP-parallel 
threadsnummkl                : 1 *! Number of threads to use in OpenMP-parallel 
%block positionsabs          : *! Cartesian positions for each atom (Block)     
O 47.82274073160245      47.25667645460973      45.98252560975496               
H 49.02657873213836      46.37388321646128      47.05079896262087               
H 48.98893597357800      48.00111084095992      44.77769116409311               
%endblock positionsabs       : *! Cartesian positions for each atom (Block)     
%block latticecart           : *! The simulation cell lattice vectors (Block)   
94.486315649999995      0.000000000000000       0.000000000000000               
0.000000000000000       94.486315649999995      0.000000000000000               
0.000000000000000       0.000000000000000       94.486315649999995              
%endblock latticecart        : *! The simulation cell lattice vectors (Block)   
%block species               : *! Species information (symbol, atomic number, n 
O O 8 4 6.0                                                                     
H H 1 1 6.0                                                                     
%endblock species            : *! Species information (symbol, atomic number, n 
%block speciespot            : *! Pseudopotential name for each species (Block) 
O O_00PBE_OP.recpot                                                             
H H_00PBE_OP.recpot                                                             
%endblock speciespot         : *! Pseudopotential name for each species (Block) 
%block speciesatomicset      : *! Atomic set name for each species (Block)      
O SOLVE                                                                         
H SOLVE                                                                         
%endblock speciesatomicset   : *! Atomic set name for each species (Block)      
%block speciesconstraints    : *! Ionic constraints for each species (Block)    
O NONE                                                                          
H NONE                                                                          
%endblock speciesconstraints : *! Ionic constraints for each species (Block)    
-------------------------------------------------------------------------------
-------------------------------------------------------------------------------

<<<<<<<<<<<<<<<<<<<<<<<<< Pseudopotential information >>>>>>>>>>>>>>>>>>>>>>>>>
File: O_00PBE_OP.recpot [ 2001 points up to Gmax=  52.9 (1/bohr)]
  Atomic number:  8;  ionic charge:  6.000000
    Shell 1: l = 1; rc = 1.54 bohr
File: H_00PBE_OP.recpot [ 2001 points up to Gmax=  52.9 (1/bohr)]
  Atomic number:  1;  ionic charge:  1.000000
    Local potential
<<<<<<<<<<<<<<<<<<<<<<<<<<<<<<<<<<<<<<< >>>>>>>>>>>>>>>>>>>>>>>>>>>>>>>>>>>>>>>

------------------------- Atom counting information ---------------------------
Symbol    Natoms    Nngwfs    Nprojs
  O          1         4         3
  H          2         2         0
.......   ......    ......    ......
Totals:      3         6         3
-------------------------------------------------------------------------------
 
============================== PSINC grid sizes ================================
                      Simulation cell:   80 x  80 x  80
                              FFT-box:   33 x  33 x  33
                                  PPD:    5 x   5 x   1
Grid space d1=  1.181078945625a0 (KE cutoff=   5.44561Eh = 148.18246eV)
Grid space d2=  1.181078945625a0 (KE cutoff=   5.44561Eh = 148.18246eV)
Grid space d3=  1.181078945625a0 (KE cutoff=   5.44561Eh = 148.18246eV)
================================================================================

********************** Fourier parallelisation information *********************
       Coarse grid (whole simulation cell) dimensions:     80    80    80
          Real-space ('12') slabs/node (min max mean):     26    27    26
         Recip-space ('23') slabs/node (min max mean):     13    14    13
********************************************************************************

********************** Fourier parallelisation information *********************
       Double grid (whole simulation cell) dimensions:    160   160   160
          Real-space ('12') slabs/node (min max mean):     53    54    53
         Recip-space ('23') slabs/node (min max mean):     27    27    27
********************************************************************************

Determining parallel strategy ...
... using space-filling curve
... NGWF load balancing: max      4;  min      1;  average      2
... Projector load balancing: max      3;  min      0;  average      1
... done
Calculating Ewald energy ...
              Ewald: real-space energy =       6.571766
        Ewald: reciprocal-space energy =       0.081892
         Ewald: (sum_charge)**2 Energy =       0.234823
         Ewald: (sum_charge**2) Energy =       0.482986
                          Ewald Energy =       5.935849
Basis initialisation ...
... Atom positions lie inside simulation cell
... NGWF spheres initialised
... Projector spheres initialised
... NGWF tight boxes initialised
... Tight-boxes gathered
... NGWF basis size (local,global):       1108      4780
... Nonlocal pseudopotential projector initialisation
... done

=========================== Sparse matrix information ==========================
                        Overlap matrix filling: 100.00%
                        Density kernel filling: 100.00%
              NGWF-Proj overlap matrix filling: 100.00%
                    Hamiltonian matrix filling: 100.00%
                  NGWF diagonal matrix filling:  50.00%
                             KS matrix filling: 100.00% 
                           KSKS matrix filling: 100.00% 
================================================================================

Sparse matrix initialisation ... done

Atom SCF Calculation for O  : Z (AE atom) =   8 : Z (PS atom) =   6
Config String:
Orbitals (num,occ):  2     2.00 4.00
Orbitals   (num,l):  2        0    1
Real-space Grid (nr,dr,rmax):  391    0.0153846154    6.0000000000
Spherical Bessel Basis (nsws,lmax,cutoff):   15    1   33.0740948021
Confining potential (l,width,scale):  0    3.0000000000  100.0000000000
Confining potential (l,width,scale):  1    3.0000000000  100.0000000000
  1 5251.4750983772   -7.1198707144   10.1555137512   -2.4512395500
  2 2089.3361115865   -3.1439684010   13.3512176305   -3.1746868256
  3 1078.8951212360   -2.9482890732   13.5590305904   -3.2264338251
  4  553.5467430338   -2.9069446141   13.6036957793   -3.2392735075
  5  280.3760812825   -2.8934287111   13.6184238135   -3.2441443872
  6  138.3286988658   -2.8875288540   13.6248815056   -3.2464463266
  7   64.4642655176   -2.8846785616   13.6280075469   -3.2476045029
  8   26.0548012432   -2.8832614931   13.6295632814   -3.2481957844
  9    6.0818910794   -2.8825510683   13.6303437170   -3.2484986802
 10   -4.3040183472   -2.8821939068   13.6307362642   -3.2486540056
 11   -9.7046897687   -2.8820141459   13.6309339178   -3.2487337030
 12  -12.5130383146   -2.8819236265   13.6310334869   -3.2487746169
 13  -13.9733793199   -2.8818780346   13.6310836569   -3.2487956318
 14  -14.7327565495   -2.8818550690   13.6311089390   -3.2488064317
 15  -15.1276326751   -2.8818435004   13.6311216799   -3.2488119850
 16  -15.3329682501   -2.8818376728   13.6311281009   -3.2488148421
 17  -15.4397427473   -2.8818347374   13.6311313367   -3.2488163129
 18  -15.4952654867   -2.8818332587   13.6311329674   -3.2488170704
 19  -15.5241373127   -2.8818325140   13.6311337892   -3.2488174609
 20  -15.5391506634   -2.8818321389   13.6311342033   -3.2488176622
 21  -15.5469576067   -2.8818319500   13.6311344120   -3.2488177661
 22  -15.5510172177   -2.8818318548   13.6311345171   -3.2488178197
 23  -15.5531282159   -2.8818318069   13.6311345701   -3.2488178474
 24  -15.5542259352   -2.8818317828   13.6311345968   -3.2488178618
 25  -15.5547967493   -2.8818317707   13.6311346102   -3.2488178692
 26  -15.5550935727   -2.8818317646   13.6311346170   -3.2488178730
 27  -15.5552479210   -2.8818317615   13.6311346204   -3.2488178750
 28  -15.5553281821   -2.8818317599   13.6311346222   -3.2488178760
 29  -15.5553699179   -2.8818317592   13.6311346230   -3.2488178765
 30  -15.5553916205   -2.8818317588   13.6311346235   -3.2488178768
 31  -15.5554029059   -2.8818317586   13.6311346237   -3.2488178770
 32  -15.5554087743   -2.8818317585   13.6311346238   -3.2488178770
 33  -15.5554118258   -2.8818317584   13.6311346238   -3.2488178771
 34  -15.5554134126   -2.8818317584   13.6311346239   -3.2488178771
 35  -15.5554142378   -2.8818317584   13.6311346239   -3.2488178771
 36  -15.5554146669   -2.8818317584   13.6311346239   -3.2488178771
 37  -15.5554148900   -2.8818317584   13.6311346239   -3.2488178771
 38  -15.5554150060   -2.8818317584   13.6311346239   -3.2488178771
 39  -15.5554150663   -2.8818317584   13.6311346239   -3.2488178771
Atom SCF converged after  39 iterations to a total energy of    -15.55541507

Atom SCF Calculation for H  : Z (AE atom) =   1 : Z (PS atom) =   1
Config String:
Orbitals (num,occ):  1     1.00
Orbitals   (num,l):  1        0
Real-space Grid (nr,dr,rmax):  391    0.0153846154    6.0000000000
Spherical Bessel Basis (nsws,lmax,cutoff):   15    0   33.0740948021
Confining potential (l,width,scale):  0    3.0000000000  100.0000000000
  1  876.6359324468   -0.2254400117    0.2820976042   -0.2424203342
  2  350.3962719589   -0.2112290261    0.3031866271   -0.2589000736
  3  181.9936447181   -0.2047325092    0.3114374215   -0.2660309815
  4   94.4241075705   -0.2012721369    0.3157616087   -0.2698689054
  5   48.8881734202   -0.1995378153    0.3179173821   -0.2718184456
  6   25.2096586050   -0.1986900183    0.3189668019   -0.2727839812
  7   12.8969238797   -0.1982801591    0.3194717963   -0.2732568660
  8    6.4943469053   -0.1980829606    0.3197134975   -0.2734874788
  9    3.1650274442   -0.1979882323    0.3198289240   -0.2735998644
 10    1.4337902993   -0.1979427221    0.3198840179   -0.2736547040
 11    0.5335507356   -0.1979208338    0.3199103255   -0.2736815284
 12    0.0654276485   -0.1979102887    0.3199228992   -0.2736946902
 13   -0.1779958149   -0.1979051980    0.3199289164   -0.2737011712
 14   -0.3045758478   -0.1979027348    0.3199318000   -0.2737043748
 15   -0.3703974334   -0.1979015400    0.3199331840   -0.2737059646
 16   -0.4046246690   -0.1979009589    0.3199338493   -0.2737067569
 17   -0.4224228507   -0.1979006756    0.3199341696   -0.2737071533
 18   -0.4316779219   -0.1979005370    0.3199343241   -0.2737073526
 19   -0.4364905710   -0.1979004691    0.3199343987   -0.2737074531
 20   -0.4389931564   -0.1979004357    0.3199344348   -0.2737075040
 21   -0.4402945057   -0.1979004193    0.3199344523   -0.2737075299
 22   -0.4409712104   -0.1979004111    0.3199344607   -0.2737075432
 23   -0.4413230986   -0.1979004071    0.3199344648   -0.2737075500
 24   -0.4415060815   -0.1979004051    0.3199344668   -0.2737075534
 25   -0.4416012332   -0.1979004041    0.3199344678   -0.2737075552
 26   -0.4416507124   -0.1979004036    0.3199344683   -0.2737075562
 27   -0.4416764418   -0.1979004034    0.3199344685   -0.2737075567
 28   -0.4416898212   -0.1979004032    0.3199344686   -0.2737075569
 29   -0.4416967785   -0.1979004032    0.3199344687   -0.2737075570
 30   -0.4417003964   -0.1979004031    0.3199344687   -0.2737075571
 31   -0.4417022777   -0.1979004031    0.3199344687   -0.2737075572
 32   -0.4417032560   -0.1979004031    0.3199344687   -0.2737075572
 33   -0.4417037647   -0.1979004031    0.3199344687   -0.2737075572
 34   -0.4417040292   -0.1979004031    0.3199344687   -0.2737075572
 35   -0.4417041668   -0.1979004031    0.3199344687   -0.2737075572
 36   -0.4417042383   -0.1979004031    0.3199344687   -0.2737075572
Atom SCF converged after  36 iterations to a total energy of     -0.44170424
NGWF initialisation ...... done
============ Calculation of NGWF S^-1 using Hotelling algorithm ================ 
         Iteration  |  Frobenius norm and Maximum abs value    (of I-S*S_n^-1)   
               1       0.20011616E+01     0.93018761E+00
               2       0.18191086E+01     0.86776217E+00
               3       0.16240512E+01     0.76105585E+00
               4       0.14222728E+01     0.60084315E+00
               5       0.12071286E+01     0.41300942E+00
               6       0.96764586E+00     0.31956207E+00
               7       0.69845415E+00     0.23675994E+00
               8       0.41578638E+00     0.13842167E+00
               9       0.16668161E+00     0.53163322E-01
              10       0.27742891E-01     0.87520492E-02
              11       0.76966639E-03     0.24280688E-03
              12       0.59238635E-06     0.18688029E-06
              13       0.35099192E-12     0.11113332E-12
================================================================================
Up spin density kernel initialisation ... 
======= Optimisation of K by Palser-Manolopoulos canonical purification ======== 
         Iteration  |  Band structure energy |    c_n   
               1          -0.76702610780634    0.5869535
               2          -0.87883541875990    0.5789400
               3          -1.01652119776979    0.5711070
               4          -1.16354901436836    0.5697180
               5          -1.28596652863326    0.5683379
               6          -1.36493396998782    0.5413521
               7          -1.41199652486720    0.5111747
               8          -1.43021305895210    0.5008247
               9          -1.43233894294674    0.5000045
              10          -1.43236457346343    0.5000060
              11          -1.43236457723375    0.9990501
              12          -1.43236457723375    0.9990501
Termination criterion satisfied: band energy change below threshold.
Final occupancy bounds: [    0.00000000000000:    0.99999999999993]
Closest occupancy to 0.5:     0.99999999999999
================================================================================
... done

Writing density kernel to file "water.dkn" ... done
   Initial electron number for spin 1:       8.00000000
     Final electron number for spin 1:       8.00000000
................................................................................
<<<<<<<<<<<<<<<< Penalty functional density kernel optimisation >>>>>>>>>>>>>>>>
~~~~~~~~~~~~~~~~~~~~~~~~~~~~~~~~~~~~~~~~~~~~~~~~~~~~~~~~~~~~~~~~~~~~~~~~~~~~~~~~
iter|       energy      |   rms grad  |  commutator |LScoef|CGcoef|      Ne    |
      Q0=E0+P0:     -14.555139574131=    -14.555139574131+      0.000000000000
    Trial step:       1.000000000000
            G0:     -10.257656175267
WARNING: minimum value of charge density: -0.0706
      Q1=E1+P1:     351.068079249028=    -23.166447305355+    374.234526554384
Quadratic term:    -375.880874998426
   Linear term:     -10.257656175267
  Optimal step:       0.013644823211
 Predicted min:     -14.625121526665
    !!! Quadratic minimum step length accepted !!!
 1    -14.55513957413075 0.53379293154 0.09882386844 0.0136  0.000    8.00000000
WARNING: minimum value of charge density: -0.0001
      Q0=E0+P0:     -14.687199813318=    -14.694782993590+      0.007583180272
    Trial step:       0.116811057742
            G0:      -0.047955979673
WARNING: minimum value of charge density: -0.0001
      Q1=E1+P1:     -14.692745360898=    -14.700255197646+      0.007509836748
Quadratic term:      -0.000056241131
   Linear term:      -0.005601788711
  Optimal step:       5.817369366087
    !!! Quadratic fit may be unreliable; taking second trial step !!!
WARNING: minimum value of charge density: -0.0004
      Q2=E2+P2:     -14.713539804718=    -14.937333058130+      0.223793253412
Quadratic term:      -0.252637655668
   Linear term:      -0.278977647069
  Optimal step:       3.211944026293
 2    -14.69478299358972 0.47207281131 0.09611166829 3.2119 -0.879    8.00000000
WARNING: minimum value of charge density: -0.0002
      Q0=E0+P0:     -14.782795567281=    -14.836280185431+      0.053484618150
    Trial step:       4.322622442933
            G0:      -7.528147242284
WARNING: minimum value of charge density: -0.7602
      Q1=E1+P1:   52620.649149099576=     -5.206768126729+  52625.855917226305
Quadratic term:  -52667.973282890060
   Linear term:     -32.541338223200
  Optimal step:       0.001335383822
    !!! Quadratic fit may be unreliable; taking second trial step !!!
WARNING: minimum value of charge density: -0.0003
      Q2=E2+P2:     -14.792787423514=    -14.847254448230+      0.054467024716
Quadratic term:      -0.000061109805
   Linear term:      -0.010052966038
  Optimal step:       0.109839724327
 3    -14.83628018543142 0.45676204012 0.04336320891 0.1098  3.255    8.00000000
WARNING: minimum value of charge density: -0.0012

======================== Penalty functional minimisation =======================
   Final total energy     :     -15.712446110854
   Final penalty energy   :       0.683962288906
   RMS occupancy error    :       0.168815
   Occupancy bounds       : [-0.173, 1.255]
================================================================================

Finished density kernel iterations (   3)

Writing density kernel to file "water.dkn" ... done

################################################################################
########################### NGWF CG iteration  001 #############################
################################################################################
****** Reciprocal space K.E. preconditioning with k_zero =  3.0000 a0^-1 *******
   Initial electron number for spin 1:       8.00000000
     Final electron number for spin 1:       8.00000000

=================== Penalty functional idempotency correction ==================
 RMS occupancy error at iteration   1:  0.168815 (step -0.2877 Ne1=      8.0000)
 RMS occupancy error at iteration   2:  0.014815 (step -0.4821 Ne1=      8.0000)
 RMS occupancy error at iteration   3:  0.000544 (step -0.5009 Ne1=      8.0000)
            Final RMS occupancy error   :  0.000001 (Ne1=      8.0000)
               Final occupancy bounds   : [  0.0000,  1.0000]
================================================================================

................................................................................
<<<<<<<<<<<<<< LNV (Original version) density kernel optimisation >>>>>>>>>>>>>>
~~~~~~~~~~~~~~~~~~~~~~~~~~~~~~~~~~~~~~~~~~~~~~~~~~~~~~~~~~~~~~~~~~~~~~~~~~~~~~~~
iter|       energy      |  rms DeltaK |  commutator |LScoef|CGcoef|      Ne    |
      ideal mu1:      -0.642092687426
             Q0:     -14.674280437817
             G0:      -0.025344050150
   RMS gradient:       0.026533024574
     Trial step:       0.500000000000
             Q1:     -14.677521791233
 Quadratic coef:       0.009430671660
 Linear coef   :      -0.012672025075
           Qmin:     -14.678537298444
Quadratic minimum step length (  0.335925836789) accepted
    Initial Ne1:       7.99999471
      Final Ne1:       8.00000000

=================== Penalty functional idempotency correction ==================
 RMS occupancy error at iteration   1:  0.000592 (step -0.4989 Ne1=      8.0000)
 RMS occupancy error at iteration   2:  0.000000 (step -0.5000 Ne1=      8.0000)
            Final RMS occupancy error   :  0.000000 (Ne1=      8.0000)
               Final occupancy bounds   : [  0.0000,  1.0000]
================================================================================

 1    -14.67428043781719 0.00000000000 0.01989975139 0.3359  0.000    8.00000000
      ideal mu1:      -0.632359178243
             Q0:     -14.678536826711
             G0:      -0.001885635365
   RMS gradient:       0.007226487809
     Trial step:       0.409832793215
             Q1:     -14.678729841525
 Quadratic coef:       0.000579780395
 Linear coef   :      -0.000772795209
           Qmin:     -14.678794343367
Quadratic minimum step length (  0.273135157428) accepted
    Initial Ne1:       7.99999968
      Final Ne1:       8.00000000

=================== Penalty functional idempotency correction ==================
 RMS occupancy error at iteration   1:  0.000097 (step -0.4998 Ne1=      8.0000)
            Final RMS occupancy error   :  0.000000 (Ne1=      8.0000)
               Final occupancy bounds   : [  0.0000,  1.0000]
================================================================================

 2    -14.67853682671122 0.00053210758 0.00541986586 0.2731  0.074    8.00000000
      ideal mu1:      -0.628946458097
             Q0:     -14.678794568183
             G0:      -0.000033166922
   RMS gradient:       0.000959293553
     Trial step:       0.334573974621
             Q1:     -14.678801760174
 Quadratic coef:       0.000003904798
 Linear coef   :      -0.000011096789
           Qmin:     -14.678802451992
Quadratic minimum step length (  0.475401946085) accepted
    Initial Ne1:       7.99999995
      Final Ne1:       8.00000000

=================== Penalty functional idempotency correction ==================
 RMS occupancy error at iteration   1:  0.000005 (step -0.5000 Ne1=      8.0000)
            Final RMS occupancy error   :  0.000000 (Ne1=      8.0000)
               Final occupancy bounds   : [  0.0000,  1.0000]
================================================================================

 3    -14.67879456818273 0.00003466649 0.00071947018 0.4754  0.018    8.00000000
      ideal mu1:      -0.629024451004
             Q0:     -14.678802452645
             G0:      -0.000005447682
   RMS gradient:       0.000388982765
     Trial step:       0.398819656793
             Q1:     -14.678803351678
 Quadratic coef:       0.000001273610
 Linear coef   :      -0.000002172643
           Qmin:     -14.678803379220
Quadratic minimum step length (  0.340171997022) accepted
    Initial Ne1:       7.99999999
      Final Ne1:       8.00000000

=================== Penalty functional idempotency correction ==================
 RMS occupancy error at iteration   1:  0.000001 (step -0.5000 Ne1=      8.0000)
            Final RMS occupancy error   :  0.000000 (Ne1=      8.0000)
               Final occupancy bounds   : [  0.0000,  1.0000]
================================================================================

 4    -14.67880245264510 0.00000100535 0.00029173707 0.3402  0.164    8.00000000
      ideal mu1:      -0.629063253425
             Q0:     -14.678803379238
             G0:      -0.000000070413
   RMS gradient:       0.000044225227
     Trial step:       0.368330393944
             Q1:     -14.678803395014
 Quadratic coef:       0.000000010159
 Linear coef   :      -0.000000025935
           Qmin:     -14.678803395791
Quadratic minimum step length (  0.470163242282) accepted
    Initial Ne1:       8.00000000
      Final Ne1:       8.00000000

=================== Penalty functional idempotency correction ==================
 RMS occupancy error at iteration   1:  0.000000 (step -0.5000 Ne1=      8.0000)
            Final RMS occupancy error   :  0.000000 (Ne1=      8.0000)
               Final occupancy bounds   : [  0.0000,  1.0000]
================================================================================

 5    -14.67880337923787 0.00000013528 0.00003316892 0.4702  0.013    8.00000000
      ideal mu1:      -0.629060116754
             Q0:     -14.678803395791
             G0:      -0.000000001328
   RMS gradient:       0.000006073578
     Trial step:       0.416143499586
             Q1:     -14.678803396096
 Quadratic coef:       0.000000000247
 Linear coef   :      -0.000000000553
           Qmin:     -14.678803396100
Quadratic minimum step length (  0.464867678760) accepted
    Initial Ne1:       8.00000000
      Final Ne1:       8.00000000

=================== Penalty functional idempotency correction ==================
 RMS occupancy error at iteration   1:  0.000000 (step -0.5000 Ne1=      8.0000)
            Final RMS occupancy error   :  0.000000 (Ne1=      8.0000)
               Final occupancy bounds   : [ -0.0000,  1.0000]
================================================================================

 6    -14.67880339579091 0.00000000210 0.00000455518 0.4649  0.019    8.00000000
      ideal mu1:      -0.629060750392
             Q0:     -14.678803396100
             G0:      -0.000000000345
   RMS gradient:       0.000003096592
     Trial step:       0.439831402566
             Q1:     -14.678803396125
 Quadratic coef:       0.000000000127
 Linear coef   :      -0.000000000152
           Qmin:     -14.678803396145
Quadratic minimum step length (  0.263204456905) accepted
    Initial Ne1:       8.00000000
      Final Ne1:       8.00000000

=================== Penalty functional idempotency correction ==================
 RMS occupancy error at iteration   1:  0.000000 (step -0.5000 Ne1=      8.0000)
            Final RMS occupancy error   :  0.000000 (Ne1=      8.0000)
               Final occupancy bounds   : [ -0.0000,  1.0000]
================================================================================

 7    -14.67880339609958 0.00000000004 0.00000232244 0.2632  0.000    8.00000000
      ideal mu1:      -0.629060270696
             Q0:     -14.678803396145
             G0:      -0.000000000036
   RMS gradient:       0.000000995813
     Trial step:       0.340243420865
             Q1:     -14.678803396154
 Quadratic coef:       0.000000000003
 Linear coef   :      -0.000000000012
           Qmin:     -14.678803396156
Quadratic minimum step length (  0.611619659975) accepted
    Initial Ne1:       8.00000000
      Final Ne1:       8.00000000

=================== Penalty functional idempotency correction ==================
 RMS occupancy error at iteration   1:  0.000000 (step -0.5000 Ne1=      8.0000)
            Final RMS occupancy error   :  0.000000 (Ne1=      8.0000)
               Final occupancy bounds   : [  0.0000,  1.0000]
================================================================================

 8    -14.67880339614499 0.00000000001 0.00000074686 0.6116  0.103    8.00000000
      ideal mu1:      -0.629060393777
             Q0:     -14.678803396156
             G0:      -0.000000000002
   RMS gradient:       0.000000229110
     Trial step:       0.456179312747
             Q1:     -14.678803396156
 Quadratic coef:       0.000000000000
 Linear coef   :      -0.000000000001
           Qmin:     -14.678803396156
Quadratic minimum step length (  0.457215065200) accepted
    Initial Ne1:       8.00000000
      Final Ne1:       8.00000000

=================== Penalty functional idempotency correction ==================
 RMS occupancy error at iteration   1:  0.000000 (step -0.5000 Ne1=      8.0000)
            Final RMS occupancy error   :  0.000000 (Ne1=      8.0000)
               Final occupancy bounds   : [  0.0000,  1.0000]
================================================================================

 9    -14.67880339615570 0.00000000000 0.00000017183 0.4572  0.053    8.00000000
      ideal mu1:      -0.629060363271
10    -14.67880339615609 0.00000000000 0.00000003110 0.0000  0.000    8.00000000
Finished density kernel iterations (  10)

Writing density kernel to file "water.dkn" ... done

           ........................................................
           | *** NGWF optimisation not converged ***              |
           | RMS NGWF gradient =    0.07381511598814              |
           | Criteria not satisfied:                              |
           | -> RMS NGWF gradient higher than set threshold.      |
           ========================================================

------------------------------- NGWF line search -------------------------------
============ Calculation of NGWF S^-1 using Hotelling algorithm ================ 
         Iteration  |  Frobenius norm and Maximum abs value    (of I-S*S_n^-1)   
               1       0.34610582E+00     0.27504467E+00
               2       0.10181276E+00     0.86800758E-01
               3       0.10129702E-01     0.86787142E-02
               4       0.10129059E-03     0.86781059E-04
               5       0.10127952E-07     0.86771554E-08
               6       0.93179628E-15     0.55511151E-15
================================================================================
============ Calculation of NGWF S^-1 using Hotelling algorithm ================ 
         Iteration  |  Frobenius norm and Maximum abs value    (of I-S*S_n^-1)   
               1       0.18800015E+00     0.13585914E+00
               2       0.27162073E-01     0.21916172E-01
               3       0.70408903E-03     0.57705637E-03
               4       0.48845686E-06     0.40038819E-06
               5       0.23518747E-12     0.19262369E-12
================================================================================
RMS gradient                =       0.07381511598814
Trial step length           =               0.122474
Gradient along search dir.  =        -17.95337209279
Functional at step 0        =     -14.67880339615609
Functional at step 1        =     -14.60393217173272
Functional predicted        =     -15.21040946280195
Selected quadratic step     =               0.059221
Conjugate gradients coeff.  =               0.000000
--------------------------- NGWF line search finished --------------------------
                                               
Writing NGWFs to file "water.tightbox_ngwfs"....  done

################################################################################
########################### NGWF CG iteration  002 #############################
################################################################################
****** Reciprocal space K.E. preconditioning with k_zero =  3.0000 a0^-1 *******
   Initial electron number for spin 1:       8.22380986
     Final electron number for spin 1:       8.00000000

=================== Penalty functional idempotency correction ==================
 RMS occupancy error at iteration   1:  0.023731 (step -0.4450 Ne1=      8.0000)
 RMS occupancy error at iteration   2:  0.000513 (step -0.4989 Ne1=      8.0000)
 RMS occupancy error at iteration   3:  0.000001 (step -0.5000 Ne1=      8.0000)
            Final RMS occupancy error   :  0.000000 (Ne1=      8.0000)
               Final occupancy bounds   : [  0.0000,  1.0000]
================================================================================

................................................................................
<<<<<<<<<<<<<< LNV (Original version) density kernel optimisation >>>>>>>>>>>>>>
~~~~~~~~~~~~~~~~~~~~~~~~~~~~~~~~~~~~~~~~~~~~~~~~~~~~~~~~~~~~~~~~~~~~~~~~~~~~~~~~
iter|       energy      |  rms DeltaK |  commutator |LScoef|CGcoef|      Ne    |
      ideal mu1:      -0.614565127124
             Q0:     -15.158020203843
             G0:      -0.217740193229
   RMS gradient:       0.077771065962
    Initial Ne1:       8.00000000
      Final Ne1:       8.00000000

=================== Penalty functional idempotency correction ==================
 RMS occupancy error at iteration   1:  0.000608 (step -0.4984 Ne1=      8.0000)
            Final RMS occupancy error   :  0.000000 (Ne1=      8.0000)
               Final occupancy bounds   : [ -0.0000,  1.0000]
================================================================================

 1    -15.15802020384269 0.00000000000 0.05832829947 0.1000  0.000    8.00000000
      ideal mu1:      -0.604337767154
             Q0:     -15.177394384257
             G0:      -0.237119473274
   RMS gradient:       0.060838844690
    Initial Ne1:       8.00000025
      Final Ne1:       8.00000000

=================== Penalty functional idempotency correction ==================
 RMS occupancy error at iteration   1:  0.001933 (step -0.4950 Ne1=      8.0000)
 RMS occupancy error at iteration   2:  0.000001 (step -0.5000 Ne1=      8.0000)
            Final RMS occupancy error   :  0.000000 (Ne1=      8.0000)
               Final occupancy bounds   : [  0.0000,  1.0000]
================================================================================

 2    -15.17739438425682 0.00136087621 0.04562913321 0.1000  0.612    8.00000000
      ideal mu1:      -0.589210636309
             Q0:     -15.196368387029
             G0:      -0.104659989889
   RMS gradient:       0.037442555487
     Trial step:       0.456696895348
             Q1:     -15.192099712563
 Quadratic coef:       0.052066566916
 Linear coef   :      -0.047797892450
           Qmin:     -15.207338183282
Quadratic minimum step length (  0.209627313447) accepted
    Initial Ne1:       8.00000020
      Final Ne1:       8.00000000

=================== Penalty functional idempotency correction ==================
 RMS occupancy error at iteration   1:  0.005222 (step -0.4868 Ne1=      8.0000)
 RMS occupancy error at iteration   2:  0.000002 (step -0.5000 Ne1=      8.0000)
            Final RMS occupancy error   :  0.000000 (Ne1=      8.0000)
               Final occupancy bounds   : [  0.0000,  1.0000]
================================================================================

 3    -15.19636838702896 0.00264083420 0.02808191662 0.2096  0.379    8.00000000
      ideal mu1:      -0.565714425444
             Q0:     -15.207824144528
             G0:      -0.004410459922
   RMS gradient:       0.010456241809
     Trial step:       0.309412577688
             Q1:     -15.208639792346
 Quadratic coef:       0.000549003955
 Linear coef   :      -0.001364651773
           Qmin:     -15.208672168684
Quadratic minimum step length (  0.384551348583) accepted
    Initial Ne1:       8.00000003
      Final Ne1:       8.00000000

=================== Penalty functional idempotency correction ==================
 RMS occupancy error at iteration   1:  0.001268 (step -0.4968 Ne1=      8.0000)
 RMS occupancy error at iteration   2:  0.000001 (step -0.5000 Ne1=      8.0000)
            Final RMS occupancy error   :  0.000000 (Ne1=      8.0000)
               Final occupancy bounds   : [  0.0000,  1.0000]
================================================================================

 4    -15.20782414452815 0.00287540057 0.00784218136 0.3846  0.078    8.00000000
      ideal mu1:      -0.566698999353
             Q0:     -15.208695692992
             G0:      -0.000871262547
   RMS gradient:       0.004840821955
     Trial step:       0.344942058929
             Q1:     -15.208848485816
 Quadratic coef:       0.000147742272
 Linear coef   :      -0.000300535097
           Qmin:     -15.208848528980
Quadratic minimum step length (  0.350837960844) accepted
    Initial Ne1:       8.00000001
      Final Ne1:       8.00000000

=================== Penalty functional idempotency correction ==================
 RMS occupancy error at iteration   1:  0.000289 (step -0.4993 Ne1=      8.0000)
            Final RMS occupancy error   :  0.000000 (Ne1=      8.0000)
               Final occupancy bounds   : [  0.0000,  1.0000]
================================================================================

 5    -15.20869569299184 0.00014948752 0.00363061647 0.3508  0.214    8.00000000
      ideal mu1:      -0.569500601211
             Q0:     -15.208849786470
             G0:      -0.000094230978
   RMS gradient:       0.001611125842
     Trial step:       0.347877519487
             Q1:     -15.208866067648
 Quadratic coef:       0.000016499661
 Linear coef   :      -0.000032780839
           Qmin:     -15.208866068371
Quadratic minimum step length (  0.345574284766) accepted
    Initial Ne1:       8.00000062
      Final Ne1:       8.00000000

=================== Penalty functional idempotency correction ==================
 RMS occupancy error at iteration   1:  0.000036 (step -0.4999 Ne1=      8.0000)
            Final RMS occupancy error   :  0.000000 (Ne1=      8.0000)
               Final occupancy bounds   : [  0.0000,  1.0000]
================================================================================

 6    -15.20884978646960 0.00002597603 0.00120834422 0.3456  0.111    8.00000000
      ideal mu1:      -0.570097318166
             Q0:     -15.208866088733
             G0:      -0.000023830477
   RMS gradient:       0.000813607832
     Trial step:       0.346723989627
             Q1:     -15.208871500166
 Quadratic coef:       0.000002851165
 Linear coef   :      -0.000008262598
           Qmin:     -15.208872074929
Quadratic minimum step length (  0.502398267278) accepted
[...]
            Final RMS occupancy error   :  0.000000 (Ne1=      8.0000)
               Final occupancy bounds   : [  0.0000,  1.0000]
================================================================================

 5    -15.32930912346032 0.00000000000 0.00000089143 0.0000  1.000    8.00000000
      ideal mu1:      -0.606842458100
             Q0:     -15.329309123460
             G0:      -0.000000000305
   RMS gradient:       0.000001188578
     Trial step:       0.000000000000
             Q1:     -15.329309123460
 Quadratic coef:       0.000000000000
 Linear coef   :      -0.000000000000
  Quadratic term too small: proceeding to cubic fit
         Quadratic fit unsuccessful: proceeding to cubic fit
             Q2:     -15.329309123460
  Cubic LS coeff:       0.000000000000
Predicted energy:     -15.329309123460
Cubic minimum step length accepted
    Initial Ne1:       8.00000000
      Final Ne1:       8.00000000

=================== Penalty functional idempotency correction ==================
 RMS occupancy error at iteration   1:  0.000000 (step -0.5000 Ne1=      8.0000)
            Final RMS occupancy error   :  0.000000 (Ne1=      8.0000)
               Final occupancy bounds   : [ -0.0000,  1.0000]
================================================================================

 6    -15.32930912346031 0.00000000000 0.00000089143 0.0000  1.000    8.00000000
      ideal mu1:      -0.606842458100
             Q0:     -15.329309123460
             G0:      -0.000000000051
   RMS gradient:       0.000001188578
     Trial step:       0.000000000000
             Q1:     -15.329309123460
 Quadratic coef:       0.000000000000
 Linear coef   :      -0.000000000000
  Quadratic term too small: proceeding to cubic fit
         Quadratic fit unsuccessful: proceeding to cubic fit
             Q2:     -15.329309123460
  Cubic LS coeff:       0.000000000000
Predicted energy:     -15.329309123460
Cubic minimum step length accepted
    Initial Ne1:       8.00000000
      Final Ne1:       8.00000000

=================== Penalty functional idempotency correction ==================
 RMS occupancy error at iteration   1:  0.000000 (step -0.5000 Ne1=      8.0000)
            Final RMS occupancy error   :  0.000000 (Ne1=      8.0000)
               Final occupancy bounds   : [ -0.0000,  1.0000]
================================================================================

 7    -15.32930912346033 0.00000000000 0.00000089143 0.0000  0.000    8.00000000
      ideal mu1:      -0.606842458100
             Q0:     -15.329309123460
             G0:      -0.000000000102
   RMS gradient:       0.000001188578
     Trial step:       0.000000000000
             Q1:     -15.329309123460
 Quadratic coef:       0.000000000000
 Linear coef   :      -0.000000000000
  Quadratic term too small: proceeding to cubic fit
         Quadratic fit unsuccessful: proceeding to cubic fit
             Q2:     -15.329309123460
  Cubic LS coeff:      -0.000044566885
Predicted energy:     -56.995731093208
Cubic minimum step length accepted
    Initial Ne1:       8.00000000
      Final Ne1:       8.00000000

=================== Penalty functional idempotency correction ==================
 RMS occupancy error at iteration   1:  0.000000 (step -0.5000 Ne1=      8.0000)
            Final RMS occupancy error   :  0.000000 (Ne1=      8.0000)
               Final occupancy bounds   : [  0.0000,  1.0000]
================================================================================

 8    -15.32930912346032 0.00000000000 0.00000089143-0.0000  1.000    8.00000000
      ideal mu1:      -0.606842458210
             Q0:     -15.329309123460
             G0:      -0.000000000153
   RMS gradient:       0.000001188724
     Trial step:       0.000000000000
             Q1:     -15.329309123460
 Quadratic coef:       0.000000000000
 Linear coef   :      -0.000000000000
  Quadratic term too small: proceeding to cubic fit
         Quadratic fit unsuccessful: proceeding to cubic fit
             Q2:     -15.329309123460
WARNING in lnv_denskernel_optimise_cg: line search unsuccessful -
  optimal step length set to safe value
    Initial Ne1:       8.00000000
      Final Ne1:       8.00000000

=================== Penalty functional idempotency correction ==================
 RMS occupancy error at iteration   1:  0.000000 (step -0.5000 Ne1=      8.0000)
            Final RMS occupancy error   :  0.000000 (Ne1=      8.0000)
               Final occupancy bounds   : [  0.0000,  1.0000]
================================================================================

 9    -15.32930912346029-0.00000000000 0.00000089154 0.1500  1.000    8.00000000
      ideal mu1:      -0.606841901677
10    -15.32930912347617 0.00000000000 0.00000037419 0.0000  0.000    8.00000000
Finished density kernel iterations (  10)

Writing density kernel to file "water.dkn" ... done

           ........................................................
           | *** NGWF optimisation converged ***                  |
           | RMS NGWF gradient =    0.00003040264170              |
           | Maximum change in energy =  0.00000000008568 / atom  |
           | Criteria satisfied:                                  |
           | -> Energy change per atom lower than set threshold.  |
           | -> Maximum degree of convergence for applied level   |
           |    of density kernel truncation has been reached.    | 
           ========================================================
WARNING: No kernel truncation, yet energy has risen on last 2 iterations.
WARNING: This most likely indicates, a problem with the density kernel.
WARNING: Either kernel occupation numbers may be unreliable, or
WARNING: requested NGWF gradient tolerance may be unachievable.

================================================================================
           ---------------- ENERGY COMPONENTS (Eh) ----------------
           | Kinetic                    :        7.95504410174754 |
           | Pseudopotential (local)    :      -42.22100509217704 |
           | Pseudopotential (non-local):       -0.81698099345333 |
           | Hartree                    :       17.50738128950529 |
           | Exchange-correlation       :       -3.68959767706947 |
           | Ewald                      :        5.93584924797084 |
           | Total                      :      -15.32930912347617 |
           --------------------------------------------------------
           ------ LOCAL ENERGY COMPONENTS FROM MATRIX TRACES ------
           | Pseudopotential (local)    :      -42.22100509217699 |
           | Hartree                    :       17.50738128950534 |
           --------------------------------------------------------
           Integrated density           :        7.99999999999996
           Integrated density tr(KS)    :        8.00000000000000
================================================================================


                    <<<<< CALCULATION SUMMARY >>>>>
|ITER|    RMS GRADIENT   |     TOTAL ENERGY    |   step   |     Epredicted      
   1     0.07381511598814    -14.67880339615609   0.059221    -15.21040946280195
   2     0.02592774302058    -15.20887261608213   0.070235    -15.28532949654787
   3     0.01284983943095    -15.29074875574624   0.084251    -15.31502919953006
   4     0.00786166777391    -15.31616161332593   0.084178    -15.32515264100093
   5     0.00481094346018    -15.32528700937058   0.063891    -15.32772326195548
   6     0.00277496276612    -15.32772425927024   0.087943    -15.32884010276075
   7     0.00174908733730    -15.32883675742296   0.076226    -15.32921968516087
   8     0.00084148739220    -15.32922759517716   0.051663    -15.32928900134271
   9     0.00034848400707    -15.32929093790627   0.074755    -15.32930589453152
  10     0.00018308891648    -15.32930524795080   0.066678    -15.32930893035210
  11     0.00024018729915    -15.32930796928230   0.010702    -15.32930924339337
  12     0.00006706948638    -15.32930908099809   0.005258    -15.32930911996424
  13     0.00006519885260    -15.32930911267568   0.001396    -15.32930912375816
  14     0.00002388283040    -15.32930912323331   0.000587    -15.32930912378450
  15     0.00002112405158    -15.32930912351517   0.000179    -15.32930912365525
  16     0.00001053971512    -15.32930912374730   0.000080    -15.32930912376202
  17     0.00000603793598    -15.32930912373322   0.000405    -15.32930912375261
  18     0.00003040264170    -15.32930912347617  <-- CG                         
 
===================== Density of States (DOS) calculation ======================
Writing "water_DOS.txt" ...  done
================================================================================
 
Writing bands to file "water.val_bands" ... done

=================== Orbital energy and occupancy information ===================

      Total number of orbitals:       6
   Number of occupied orbitals:       4
                 Occupancy sum:       4.000000000
                 HOMO-LUMO gap:       0.293230560 Eh
                 Mid-gap level:      -0.089471240 Eh

                        Orbital | Energy (Eh) | Occupancy
                            1    -1.319012674   1.0000000
                            2    -0.472458765   1.0000000
                            3    -0.399809648   1.0000000
                            4    -0.236086520   1.0000000
                        .......   --- gap ---   .........
                            5     0.057144040   0.0000000
                            6     0.182821905   0.0000000

================================================================================

********************* Unconstrained **********************
********************* Ewald forces  **********************
*                                                        *
* Element  Atom         Cartesian components (Eh/a)      *
* ------------------------------------------------------ *
*                       x            y            z      *
*                                                        *
*    O       1     -2.30074936   0.13293069   0.13450602 *
*    H       2      1.16935963  -0.93070254   1.14015809 *
*    H       3      1.13138973   0.79777185  -1.27466411 *
*                                                        *
**********************************************************
TOTAL:             -0.00000000   0.00000000  -0.00000000
 
********************* Unconstrained **********************
***************** Local potential forces *****************
*                                                        *
* Element  Atom         Cartesian components (Eh/a)      *
* ------------------------------------------------------ *
*                       x            y            z      *
*                                                        *
*    O       1      1.68385786  -0.09627795  -0.10690012 *
*    H       2     -1.03390042   0.83026503  -1.03062229 *
*    H       3     -1.00249954  -0.71629424   1.14944240 *
*                                                        *
**********************************************************
TOTAL:             -0.35254210   0.01769284   0.01191999
********************* Unconstrained **********************
*************** Non-local potential forces ***************
*                                                        *
* Element  Atom         Cartesian components (Eh/a)      *
* ------------------------------------------------------ *
*                       x            y            z      *
*                                                        *
*    O       1      0.33145570  -0.01820192  -0.02840391 *
*    H       2      0.00000000   0.00000000   0.00000000 *
*    H       3      0.00000000   0.00000000   0.00000000 *
*                                                        *
**********************************************************
TOTAL:              0.33145570  -0.01820192  -0.02840391
 
********************* Unconstrained **********************
************ NGWF non self-consistent forces *************
*                                                        *
* Element  Atom         Cartesian components (Eh/a)      *
* ------------------------------------------------------ *
*                       x            y            z      *
*                                                        *
*    O       1      0.00181610  -0.00017817   0.00036673 *
*    H       2      0.00036245   0.00046603  -0.00032880 *
*    H       3      0.00071747  -0.00010055   0.00062758 *
*                                                        *
**********************************************************
TOTAL:              0.00289602   0.00018731   0.00066551
 
********************* Unconstrained **********************
****** Correction to ensure the total force is zero ******
*                                                        *
* Element  Atom         Cartesian components (Eh/a)      *
* ------------------------------------------------------ *
*                       x            y            z      *
*                                                        *
*    O       1     -0.00606346  -0.00010726  -0.00527280 *
*    H       2     -0.00606346  -0.00010726  -0.00527280 *
*    H       3     -0.00606346  -0.00010726  -0.00527280 *
*                                                        *
**********************************************************
TOTAL:             -0.01819038  -0.00032177  -0.01581841

********************* Unconstrained **********************
************************* Forces *************************
*                                                        *
* Element  Atom         Cartesian components (Eh/a)      *
* ------------------------------------------------------ *
*                       x            y            z      *
*                                                        *
*    O       1     -0.27755624   0.01837991   0.00484152 *
*    H       2      0.14188511  -0.09986422   0.11447981 *
*    H       3      0.13567113   0.08148431  -0.11932133 *
*                                                        *
**********************************************************
* TOTAL:            0.00000000  -0.00000000   0.00000000 *
**********************************************************

------------------------------ TIMING INFORMATION ------------------------------
AVERAGE TIME:     245.220s on      3 node(s)                                    
TOTAL TIME:       245.220s on      3 node(s)                                    
================== AVERAGE TIMINGS FROM ALL NODES (CUMULATIVE) =================
|| TAG                                    #calls    cpu time   %total  Gflops ||
|| work_imbalance                       :     1        0.00s   0.000%  ------ ||
|| ewald_calculate_forces_realspace     :     1        0.00s   0.000%  ------ ||
|| dense_eigensolve                     :     1        0.00s   0.000%  ------ ||
|| ewald_calculate_forces_recipspace    :     1        0.00s   0.000%  ------ ||
|| basis_extract_function_from_box      :    72        0.00s   0.000%  ------ ||
|| ewald_calculate_forces               :     1        0.00s   0.000%  ------ ||
|| ewald_calculate_energy               :     1        0.00s   0.000%  ------ ||
|| sparse_init                          :     1        0.00s   0.001%  ------ ||
|| integrals_brappd_ketppd              :    35        0.00s   0.001%  ------ ||
|| pseudopotentials_nonlocal_mat        :    35        0.00s   0.002%  ------ ||
|| palser_mano_kernel_optimise          :     1        0.00s   0.002%  ------ ||
|| restart_ngwfs_tightbox_output        :    17        0.00s   0.002%  ------ ||
|| restart_kernel_write                 :    20        0.00s   0.002%  ------ ||
|| eigenstates_calculate                :     1        0.01s   0.002%  ------ ||
|| integrals_grad                       :     1        0.01s   0.003%  ------ ||
|| nonsc_forces_ngwfs_calc              :     1        0.01s   0.003%  ------ ||
|| basis_dot_function_with_box          :  2801        0.01s   0.005%  ------ ||
|| sparse_hotelling_invert              :    35        0.01s   0.005%  ------ ||
|| ngwf_gradient_coeffs                 :    18        0.01s   0.006%  ------ ||
|| projectors_func_grad_ovlp_box        :     3        0.02s   0.008%  ------ ||
|| pseudo_nl_calculate_forces           :     1        0.02s   0.009%  ------ ||
|| basis_add_function_to_box            :  5712        0.02s   0.010%  ------ ||
|| pseudo_make_structure_factor         :     1        0.04s   0.015%  ------ ||
|| density_initial_guess_real           :     1        0.05s   0.019%  ------ ||
|| fourier_apply_box_pair               :   120        0.06s   0.024%  16.635 ||
|| basis_copy_function_to_box           :  1300        0.06s   0.026%  ------ ||
|| integrals_kinetic                    :    35        0.10s   0.040%  ------ ||
|| lnv_gradient_norm                    :   180        0.11s   0.046%  ------ ||
|| pseudopotentials_local_on_grid       :     1        0.12s   0.048%  ------ ||
|| kernel_fix                           :   180        0.12s   0.051%  ------ ||
|| kernel_purify                        :   587        0.15s   0.059%  ------ ||
|| pseudo_local_calculate_forces        :     1        0.15s   0.060%  ------ ||
|| projectors_gradient_batch            :    18        0.16s   0.065%  ------ ||
|| sparse_trace                         :  4968        0.16s   0.065%  ------ ||
|| forces_calculate                     :     1        0.20s   0.083%  ------ ||
|| density_batch_row_sums               :   404        0.21s   0.087%  ------ ||
|| projectors_func_ovlp_box             :    35        0.23s   0.092%  ------ ||
|| projectors_init_fftbox_recip         :    56        0.26s   0.105%  ------ ||
|| sparse_product                       :  6312        0.27s   0.111%  ------ ||
|| integrals_locpot_mat_els_batch       :   193        0.52s   0.213%  ------ ||
|| properties_calculate                 :     1        0.62s   0.252%  ------ ||
|| ngwf_gradient_batch                  :    18        1.04s   0.426%  ------ ||
|| ngwf_gradient_lnv                    :    18        1.21s   0.495%  ------ ||
|| cell_grid_extract_box                :   880        1.41s   0.575%  ------ ||
|| hamiltonian_energy_components        :     4        2.73s   1.115%  ------ ||
|| cell_grid_deposit_box                :  1617        4.11s   1.676%  ------ ||
|| density_fftbox_deposit_to_cell       :  1616        4.12s   1.679%  ------ ||
|| fourier_apply_box                    :  2998        4.40s   1.794%  27.767 ||
|| density_fftbox_interpolate_multiply  :  1616        4.54s   1.853%  ------ ||
|| potential_apply_to_ngwf_batch        :   193        5.05s   2.060%  ------ ||
|| penalty_denskernel_optimise_cg       :     1        5.31s   2.167%  ------ ||
|| integrals_locpot_dbl_grid            :   193        5.67s   2.310%  ------ ||
|| density_batch_interp_deposit         :   404        9.16s   3.733%  ------ ||
|| density_on_dbl_grid                  :   404       10.99s   4.483%  ------ ||
|| hartree_on_grid                      :   404       33.52s  13.670%  ------ ||
|| fourier_apply_cell_forward           :  2021       74.96s  30.567%   6.115 ||
|| fourier_apply_cell_backward          :  2021       84.70s  34.540%   5.412 ||
|| xc_energy_potential                  :   404      178.40s  72.750%  ------ ||
|| lnv_denskernel_optimise_cg           :    18      223.69s  91.222%  ------ ||
|| ngwf_cg_optimise                     :     1      238.01s  97.061%  ------ ||
|| total_time                           :     1      245.22s 100.000%  ------ ||
================================================================================
Overhead of generating timer report: 
- 0 ms averaging over threads,
- 0 ms ensuring consistency across MPI ranks,
- 0 ms printing in order.

Job completed: 09-03-2015 16:43 (-0000)

