 +---------------------------------------------------------------+
 |                                                               |
 |        ####### #     # ####### ####### ####### ######         |
 |        #     # ##    # #          #    #       #     #        |
 |        #     # # #   # #          #    #       #     #        |
 |        #     # #  #  # #####      #    #####   ######         |
 |        #     # #   # # #          #    #       #              |
 |        #     # #    ## #          #    #       #              |
 |        ####### #     # #######    #    ####### #              |
 |                                                               |
 |        Linear-Scaling Ab Initio Total Energy Program          |
 |                                                               |
 |          Release for academic collaborators of ODG            |
 |                                             Version 3.5.9.8   |
 |                                                               |
 +---------------------------------------------------------------+
 |                                                               |
 |  Authors:                                                     |
 |  Jacek Dziedzic, Peter D. Haynes, Nicholas D. M. Hine,        |
 |  Arash. A. Mostofi, Mike C. Payne and Chris-Kriton Skylaris   |
 |                                                               |
 |  Contributors:                                                |
 |  J. Aarons, L. Andrinopoulos, P. W. Avraam, R. A. Bell,       |
 |  S. J. Clark, G. C. Constantinescu, F. Corsetti, N. Corsini,  |
 |  O. Dieguez, S. M. M. Dubois,  H. H. Helal,                   |
 |  Q. O. Hill, L. P. Lee, J.-H. Li, D. D. O`Regan,              |
 |  M. J. S. Phipps, C. J. Pickard, M. I. J. Probert,            |
 |  L. Ratcliff, M. Robinson, A. Ruiz Serrano, J. S. Spencer,    |
 |  G. Teobaldi, V. Vitale, K. A. Wilkinson and                  |
 |  T. J. Zuehlsdorff                                            |
 |                                                               |
 |                                   Copyright (c) 2004-2014     |
 |                                                               |
 |  Please cite:                                                 |
 |  "Introducing ONETEP: Linear-scaling density functional       |
 |   simulations on parallel computers".                         |
 |   C.-K. Skylaris, P. D. Haynes, A. A. Mostofi, M. C. Payne.   |
 |   J. Chem. Phys. 122 084119 (2005).                           |
 |                                                               |
 |          in all publications arising from your use of ONETEP. |
 |                                                               |
 +---------------------------------------------------------------+
 |                                                               |
 |   ONETEP is based on developments described in the following  |
 |   publications:                                               |
 |                                                               |
 |  "Nonorthogonal generalized Wannier function pseudopotential  |
 |   plane-wave method".                                         |
 |   C.-K. Skylaris, A. A. Mostofi, P. D. Haynes, O. Dieguez,    |
 |   M. C. Payne.                                                |
 |   Phys. Rev. B 66 035119 (2002).                              |
 |                                                               |
 |  "Preconditioned iterative minimization for linear-scaling    |
 |   electronic structure calculations".                         |
 |   A. A. Mostofi, P. D. Haynes, C.-K. Skylaris, M. C. Payne.   |
 |   J. Chem. Phys. 119(17), pp.8842-8848 (2003).                |
 |                                                               |
 |  "Total-energy calculations on a real space grid with         |
 |   localized functions and a plane-wave basis".                |
 |   A. A. Mostofi, C.-K. Skylaris, P. D. Haynes, M. C. Payne.   |
 |   Comput. Phys. Commun. 147, pp.788-802 (2002).               |
 |                                                               |
 |  "Accurate kinetic energy evaluation in electronic structure  |
 |   calculations with localized functions on real space grids"  |
 |   C.-K. Skylaris, A. A. Mostofi, P. D. Haynes, C. J. Pickard, |
 |   M. C. Payne.                                                |
 |   Comput. Phys. Commun. 140, pp.315-322 (2001).               |
 |                                                               |
 |  "Accurate ionic forces and geometry optimization in linear-  |
 |   scaling density-functional theory with local orbitals"      |
 |   N. D. M. Hine, M. Robinson, P. D. Haynes, C.-K. Skylaris,   |
 |   M. C. Payne, and A. A. Mostofi.                             |
 |   Phys. Rev. B 83 195102 (2011).                              |
 |                                                               |
 +---------------------------------------------------------------+

Job started: 09-03-2015 21:16 (-0000)
 
If your calculation crashes here, before "Reading parameters..."
is displayed, then your stack size is insufficient.
If so, use "ulimit -s unlimited" at runtime.

Reading parameters from file "water.dat" ...... done
Running on     3 processors.
There are   3 MPI processes running on the same node as the root process.
Each MPI process is using: 
             1 threads for simulation cell FFTs.
             1 threads for parallel FFT box operations.
             1 threads for loops over batched FFT box operations.
             1 threads in other parallel regions.
 
Reading geometry and species blocks from file "water.dat" ...    
  Number of PPD points along a3 set to 1 from input file.
... done
-------------------------------------------------------------------------------
---------------------------- RUN-TIME PARAMETERS ------------------------------
-------------------------------------------------------------------------------
task                         : SINGLEPOINT *! Type of calculation (String)      
cutoffenergy                 : 14.6995976898129      hartree *! Plane wave kine 
kernelcutoff                 : 1000.00000000000      bohr *! Density kernel rad 
xcfunctional                 : PBE *! Exchange-correlation functional (String)  
libxcxfuncid                 : 0 *! Functional identifier for which exchange fu 
libxccfuncid                 : 0 *! Functional identifier for which correlation 
charge                       : 0.000000000000000E+000 *! The total charge of th 
spin                         : 0 *! Total spin of system (Integer)              
spinpolarized                : F *! Switch for spin polarisation (Boolean)      
spinpolarised                : F *! Switch for spin polarisation (Boolean)      
constantefield               : 0.0000000000     0.0000000000     0.0000000000 * 
fftboxpref                   : 0 0 0 *! Preferred FFT box dimensions (String)   
ppdnpoints                   : 0 0 1 *! PPD edge length in grid points for each 
psincspacing                 : 0.0 0.0 0.0 *! PSINC grid spacing in atomic unit 
oldinput                     : F *! Read old-format input file (Boolean)        
develcode                    : *! For development code only (String)            
positionsxyzfile             : *! .xyz file to read positional data from (Strin 
positionsintermediatexyzfile : *! .xyz file to read positional data for interme 
positionsproductxyzfile      : *! .xyz file to read positional data for product 
nnho                         : F *! Initialise NGWFs to nonorthogonal natural h 
ngwfhalo                     : -1.00000000000000      bohr *! Halo extension to 
nonscforces                  : T *! Include non self-consistent forces due to N 
externalpressure             : 0.000000000000000E+000 ha/bohr**3 *! External ap 
smoothingfactor              : 5.00000000000000 *! Smoothing factor in volume t 
isosurfacecutoff             : 5.000000000000000E-004 *! Isosurface cutoff in v 
maxitpalsermano              : 50 *! Maximum number of iterations for Palser-Ma 
maxitkernelocccheck          : 0 *! Maximum number of kernel resets after occup 
maxitpen                     : 3 *! Max number of penalty functional iterations 
penparam                     : 4.00000000000000 *! Penalty functional parameter 
minitlnv                     : 10 *! Min number of LNV iterations (Integer)     
maxitlnv                     : 10 *! Max number of LNV iterations (Integer)     
lnvthresholdorig             : 1.000000000000000E-009 *! LNV convergence thresh 
lnvcgtype                    : LNV_FLETCHER *! Type of CG coefficient for LNV d 
lnvcgmaxstep                 : 3.00000000000000 *! Maximum length of trial step 
exactlnv                     : T *! Use original LNV algorithm (Boolean)        
oldlnv                       : F *! Use LNV algorithm backwards compatible pre  
lnvchecktrialsteps           : T *! Check stability of kernel at each trial ste 
kerfix                       : 1 *! Density kernel fixing approach (Integer)    
maxitkernelfix               : 3 *! Maximum # iterations of Penalty Functional  
initialdensrealspace         : T *! Construct initial density in real space fro 
kerneldiissize               : 10 *! Max number of kernels saved during kernel  
kerneldiismaxit              : 25 *! Max number of kernel DIIS iterations (Inte 
kerneldiisthreshold          : 1.000000000000000E-009 *! Density mixing converg 
kerneldiislineariter         : 5 *! Number of linear mixing iterations (Integer 
kerneldiiscoeff              : 0.100000000000000 *! Coefficient for the input k 
kerneldiisconvcriteria       : 1000 *! Density mixing convergence criteria (Str 
kerneldiislshift             : 1.00000000000000      hartree *! The initial val 
kerneldiislsiter             : 0 *! Maximum Level shifting iteration (Integer)  
kerneldiisscheme             : NONE *! Select scheme for kernel-diis (String)   
edft                         : F *! Use Ensemble-DFT method to optimise the ker 
edftmaxit                    : 10 *! Maximum number of EDFT iterations to optim 
edftmaxstep                  : 1.00000000000000 *! Maximum step during EDFT lin 
edftsmearingwidth            : 3.166811429000000E-003 hartree *! Occupancy smea 
edftfreeenergythres          : 1.000000000000000E-006 hartree *! Convergence th 
edftenergythres              : 1.000000000000000E-004 hartree *! Convergence th 
edftentropythres             : 1.000000000000000E-004 hartree *! Convergence th 
edftrmsgradientthres         : 1.000000000000000E-004 *! Convergence threshold  
edftcommutatorthres          : 1.000000000000000E-005 hartree *! Convergence th 
edftfermithres               : 1.000000000000000E-003 hartree *! Convergence th 
edftwriteocc                 : F *! Generate file with smeared occupancies (Boo 
edftextrabands               : -1 *! Number of additional MOs with non-zero occ 
eigensolverorfac             : 1.000000000000000E-004 *! Precision to which the 
eigensolverabstol            : 1.000000000000000E-009 *! Precision to which the 
writehamiltonian             : F *! Save current Hamiltonian matrix in a file ( 
readhamiltonian              : F *! Read current Hamiltonian matrix from a file 
ngwfcgrotate                 : F *! Rotate density kernel during NGWF optimizat 
edftroundevals               : -1 *! Round EDFT eigenvalues to N decimal figure 
maxitngwfcg                  : 100 *! Max number of NGWF conjugate gradients (C 
ngwfcgtype                   : NGWF_FLETCHER *! Type of CG coefficient for NGWF 
ngwfcgmaxstep                : -8.00000000000000 *! Maximum length of trial ste 
eleccgmax                    : 3 *! Number of NGWF iterations to reset CG (Inte 
precondscheme                : TETER *! Recip-space preconditioning scheme (Str 
kzero                        : 3.00000000000000      1/bohr *! KE preconditioni 
rprecond                     : 2.00000000000000      bohr *! Radial cut-off for 
precondrecip                 : T *! Recip-space KE preconditioning (Boolean)    
precondreal                  : F *! Real-space KE preconditioning (Boolean)     
smoothscheme                 : NONE *! Smoothing scheme for the NGWF gradients  
rsmooth                      : 1.50000000000000      bohr *! Radius of the unsh 
ksmooth                      : 5.00000000000000      1/bohr *! Characteristic w 
occmix                       : 0.250000000000000 *! Mix fraction of occupancy p 
kernelupdate                 : F *! Update density kernel during NGWF line sear 
kernelchristoffelupdate      : F *! Update density kernel during NGWF line sear 
maxithotelling               : 100 *! Number of Hotelling iteration per NGWF ch 
maxresidhotelling            : 1.000000000000000E-012 *! Max allowed value in H 
rmskernelmeasure             : F *! Use root mean squared measure of [K,H] comm 
maxitngwfdiis                : 0 *! Max number of NGWF DIIS steps (Integer)     
ngwfdiissize                 : 4 *! Max size of the DIIS iterative subspace (In 
ngwfdiisreset                : 8 *! Max number of iteration for the resetting o 
ngwfdiismaxstep              : 2.00000000000000 *! Max length of trial step for 
ngwfthresholdorig            : 1.837500000000000E-006 *! NGWF convergence thres 
elecenergytol                : 3.674899422453221E-005 hartree *! Tolerance on t 
elecforcetol                 : -1.000000000000000E-003 ha/bohr *! Tolerance on  
ngwfmaxgrad                  : -2.000000000000000E-005 *! Maximum permissible v 
deltaeconv                   : T *! Use consecutive energy gains as a criterion 
kernelforceconv              : F *! Force density kernel convergence on last NG 
fftboxbatchsize              : 16 *! Number of NGWFs in fftbox batches (Integer 
densethreshold               : 0.400000000000000 *! Threshold for matrix segmen 
commsgroupsize               : -1 *! Number of nodes in a group (determines com 
ovlpfornonlocal              : F *! Overlap sparsity for nonlocal (Boolean)     
usespacefillingcurve         : T *! Re-arrange atoms according to space-filling 
corehamdenskernguess         : T *! Initial guess for density kernel from core  
checkatoms                   : T *! Check atoms on top of each other (Boolean)  
locpotscheme                 : FULL *! Scheme for evaluating local potential ma 
smoothprojectors             : -0.400000000000000 *! Halfwidth of Gaussian filt 
smoothlocpspot               : -0.400000000000000 *! Halfwidth of Gaussian filt 
oddpsincgrid                 : F *! Force odd number of points in simcell psinc 
evenpsincgrid                : F *! Force even number of points in simcell psin 
realspaceprojectors          : F *! Whether to evaluate and store projectors in 
projectorsprecalculate       : T *! Whether to pre-calculate the nonlocal proje 
outputdetail                 : VERBOSE *! Level of output detail (String)       
pawoutputdetail              : DEFAULT *! Level of output detail for PAW: BRIEF 
mdoutputdetail               : DEFAULT *! Level of output detail for MD: BRIEF, 
timingslevel                 : 1 *! Level of timings output: 0(none) 1(nodes su 
timingsorder                 : TIME *! Sorting order of timings (String)        
runtime                      : -1.00000000000000 *! The maximum allocated run t 
writeparams                  : T *! Output runtime parameters at startup (Boole 
esdfdump                     : T *! Dump all runtime parameters at startup (Boo 
writeforces                  : T *! Write ionic forces (Boolean)                
writepositions               : T *! Write ionic positions each geometry or MD s 
writevelocities              : F *! Write ionic velocities each MD step (Boolea 
writexyz                     : F *! Output coordinates in .xyz file (Boolean)   
printqc                      : F *! Print Quality Control information (Boolean) 
cubeformat                   : T *! Allow .cube format for plot outputs (Boolea 
dxformat                     : F *! Allow .dx format for plot outputs (Boolean) 
dxformatcoarse               : F *! Output only points on the coarse grid (Bool 
dxformatdigits               : 7 *! Number of significant digits in .dx output  
grdformat                    : F *! Allow .grd format for plot outputs (Boolean 
writedensityplot             : F *! Write the charge density in plotting format 
writepolarisationplot        : F *! Write the polarisation density in plotting  
writengwfplot                : F *! Write NGWFs in plotting format (Boolean)    
writengwfgradplot            : F *! Write NGWF Gradients in plotting format (Bo 
writengwfradial              : 0 *! Write NGWFs radial distributions (Integer)  
writengwfgradradial          : 0 *! Write NGWFs gradients radial distributions  
writeradialstep              : 5.000000000000000E-003 bohr *! Define the grid s 
writeradialsmear             : 1.000000000000000E-002 bohr *! Define the gaussi 
writeinitialradialngwfs      : F *! Controls output of radial NGWF plots from a 
readdenskern                 : F *! Read density kernel restart information (Bo 
writedenskern                : T *! Write density kernel restart information (B 
readtightboxngwfs            : F *! Read in universal tightbox NGWFs restart in 
writetightboxngwfs           : T *! Write in universal tightbox NGWFs restart i 
writeconvergeddkngwfs        : F *! Only write Density Kernel and NGWFs upon co 
readswngwfs                  : F *! Read NGWFs restart information in spherical 
writeswngwfs                 : F *! Write NGWFs restart information in spherica 
writemaxl                    : 3 *! Maximum angular momentum number when writin 
readmaxl                     : 3 *! Maximum angular momentum number when readin 
extransw                     : 0 *! Maximum number of zeros of the sph Bessel f 
paw                          : F *! Uses a PAW construction to find correct cor 
finegridscale                : 2.00000000000000 *! Ratio of size of fine grid t 
dblgridscale                 : 2.00000000000000 *! Ratio of charge density / po 
augfuncsrecip                : T *! Construct Augmentation functions in recip s 
pseudopath                   : *! Path to pseudopotentials (String)             
dispersion                   : 0 *! Select dispersion correction (String)       
vdwdcoeff                    : -1.00000000000000 *! Replacement VDW damping coe 
hubbardmaxiter               : 10 *! Maximum number of DFT+U projector optimisa 
hubbardenergytol             : 1.000000000000000E-008 hartree *! Energy toleran 
hubbardconvwin               : 2 *! Energy convergence window when using DFT+U  
hubbardprojmixing            : 0.000000000000000E+000 *! Proportion of old Hubb 
hubbardfunctional            : 1 *! DFT+U energy functional to use (Integer)    
hubbardtensorcorr            : 1 *! DFT+U projector tensorial correction to use 
hubbardngwfspinthreshold     : 2.000000000000000E-005 *! NGWF RMS  gradient thr 
hubbardscfonthefly           : F *! Carry out on-the-fly HUBBARDSCF with new pr 
hubbardreadprojectors        : F *! Logical to read Hubbard-projectors from fil 
cdftatomcharge               : F *! Perform an ATOM-CHARGE-constrained CDFT sim 
cdftatomspin                 : F *! Perform an ATOM-SPIN-constrained CDFT simul 
cdftgroupchargediff          : F *! Perform a GROUP-CHARGE-DIFFERENCE-constrain 
cdftgroupspindiff            : F *! Perform a GROUP-SPIN-DIFFERENCE-constrained 
cdftgroupchargeacceptor      : F *! Perform an ACCEPTOR GROUP-CHARGE-constraine 
cdftgroupchargedonor         : F *! Perform a DONOR GROUP-CHARGE-constrained CD 
cdftgroupspinacceptor        : F *! Perform an ACCEPTOR GROUP-SPIN-constrained  
cdftgroupspindonor           : F *! Perform a DONOR GROUP-SPIN-constrained CDFT 
cdfthubbard                  : F *! Perform a constrained-DFT+U simulation (Boo 
cicdft                       : F *! Perform a CONFIGURATION-INTERACTION CDFT si 
cdftprintallocc              : F *! Logical to have the occupancy-matrix of all 
cdftreadprojectors           : F *! Logical to read cDFT-projectors from file ( 
cdftgroupchargeuponly        : F *! Logical to constrain only UP electrons (Boo 
cdftgroupchargedownonly      : F *! Logical to constrain only UP electrons (Boo 
cdftmultiproj                : F *! Logical to use mutiple angular-momentum pro 
cicdftnumconf                : 0 *! Number of cDFT-configurations for CI_CDFT s 
cdftgroupchargedifftarget    : 0.000000000000000E+000 *! Targeted CHARGE differ 
cdftgroupspindifftarget      : 0.000000000000000E+000 *! Targeted SPIN differen 
cdftchargeacceptortarget     : 0.000000000000000E+000 *! Targeted group-CHARGE  
cdftchargedonortarget        : 0.000000000000000E+000 *! Targeted group-CHARGE  
cdftspinacceptortarget       : 0.000000000000000E+000 *! Targeted group-SPIN fo 
cdftspindonortarget          : 0.000000000000000E+000 *! Targeted group-SPIN fo 
maxitcdftucg                 : 60 *! Max number of cdFT-U conjugate gradients ( 
cdftcgtype                   : NGWF_FLETCHER *! Type of CG coefficient for CDFT 
cdftcgthreshold              : 1.000000000000000E-003 *! RMS gradient convergen 
cdfttriallength              : 0.100000000000000 *! Trial length for cDFT line- 
cdftcgmax                    : 5 *! Number of U-opt iterations to reset CG (Int 
cdftmaxgrad                  : 1.000000000000000E-003 *! Maximum permissible va 
cdftelecenergytol            : -1.000000000000000E-004 hartree *! Tolerance on  
cdftcgmaxstep                : 50.0000000000000 *! Maximum length of trial step 
cdftguru                     : F *! Let the user signal she/he does not need he 
cdftcontinuation             : F *! Logical to restart (from the *.cdft file) a 
cdfttight                    : F *! Logical to activate tight NGWFs-cDFT optimi 
cdftwritepotentials          : T *! Logical to write cDFT-potentials into file  
coulombcutoffradius          : 0.000000000000000E+000 bohr *! Radius of sphere  
coulombcutofflength          : 0.000000000000000E+000 bohr *! Length of cylinde 
coulombcutofftype            : NONE *! Type of cutoff coulomb interaction: NONE 
coulombcutoffwriteint        : F *! Write real-space cutoff Coulomb interaction 
pbccorrectioncutoff          : 0.000000000000000E+000 bohr *! alpha*L cutoff pa 
doproperties                 : T *! Allow calculation of properties (Boolean)   
numeigenvalues               : 6 *! Number of energy and occupancy eigenvalues  
homodensplot                 : -1 *! Number of squared MOs to plot from HOMO an 
lumodensplot                 : -1 *! Number of squared MOs to plot from LUMO an 
homoplot                     : -1 *! Number of MOs to plot from HOMO and lower  
lumoplot                     : -1 *! Number of MOs to plot from LUMO and higher 
dossmear                     : 3.674899422453221E-003 hartree *! Half width of  
ldossmear                    : 3.674932438755288E-003 hartree *! Lorentzian bro 
popncalculate                : F *! Allow population analysis (Boolean)         
popnbondcutoff               : 5.66917840375065      bohr *! Bond length cutoff 
ngwfanalysis                 : F *! Perform NGWF analysis (Boolean)             
polarisationcalculate        : F *! Allow calculation of polarisation (Boolean) 
spreadcalculate              : F *! Calculate spread of NGWFs (Boolean)         
anharmoniccalculate          : F *! Active the calculation of the IR spectrum ( 
geommodulusest               : 1.700000000000000E-002 ha/bohr**3 *! The estimat 
geomfrequencyest             : 7.600000000000000E-003 hartree *! The estimated  
geomenergytol                : 3.674899422453221E-007 hartree *! Geometry optim 
geomforcetol                 : 5.834023153688738E-004 ha/bohr *! Geometry optim 
geomdisptol                  : 1.889726877774356E-003 bohr *! Geometry optimiza 
geommaxiter                  : 100 *! Maximum number of geometry optimization i 
geomconvergencewin           : 2 *! Geometry optimization convergence tolerance 
geomcontinuation             : F *! Read information for continuation of a prev 
geombackupiter               : 1 *! Number of geometry optimisation iterations  
geomresetdkngwfsiter         : 6 *! Number of geom iterations between resets of 
geomlbfgsmaxupdates          : 30 *! Number of LBFGS update vectors to store (I 
geomlbfgsblocklength         : 30 *! How many updates to store before reallocat 
geomreusedkngwfs             : T *! Re-use density kernel and NGWFs during geom 
geomprintinvhessian          : F *! Write inverse Hessian to standard output (B 
geommethod                   : CARTESIAN *! Method for geometry optimization (S 
geomlbfgs                    : F *! Whether to perform LBFGS rather than BFGS i 
tssearchmethod               : LSTQST *! Specifies method to be used for TS sea 
tssearchlstqstprotocol       : LSTMAXIMUM *! Specifies LSTQST protocol (String) 
tssearchqstmaxiter           : 5 *! Specifies maximum number of QST steps (Inte 
tssearchcgmaxiter            : 20 *! Specifies maximum number of CG steps (Inte 
tssearchforcetol             : 5.000000000000000E-003 ha/bohr *! Force toleranc 
tssearchdisptol              : 1.000000000000000E-002 bohr *! Displacement tole 
mdproperties                 : F *! Compute vibrational and IR spectra from MD  
mdrestart                    : F *! Restart MD from backup files (Boolean)      
mddeltat                     : 40.0000000000000      aut *! Molecular dynamics  
mdnumiter                    : 100 *! Maximum number of molecular dynamics iter 
mdresethistory               : 100 *! Reset mixing scheme for initial guess of  
mtsxi                        : F *! Internal thermostat in the multiple time-st 
mtsnstep                     : 1 *! Number of time steps in the multiple time-s 
mtsngwfthreshold             : 5.000000000000000E-004 *! NGWF convergence thres 
mtslnvthreshold              : 5.000000000000000E-006 *! LNV convergence thresh 
mtselecenergytol             : -1.000000000000000E-003 hartree *! Tolerance on  
mtselecforcetol              : -1.000000000000000E-003 ha/bohr *! Tolerance on  
mtsngwfmaxgrad               : -2.000000000000000E-005 *! Maximum permissible v 
mtsmaxitngwfcg               : 50 *! Max number of conjugate gradients iteratio 
mtsminitlnv                  : 5 *! Min number of LNV iterations (Integer)      
mtsmaxitlnv                  : 5 *! Max number of LNV iterations (Integer)      
mtsmaxitpen                  : 3 *! Max number of penalty iterations (Integer)  
mtsmixinc                    : F *! Include the mts correction step in the NGWF 
mixdkntype                   : NONE *! Type of mixing used to build new guess f 
mixdknnum                    : 0 *! Number of coefficients used to build new gu 
mixdkninittype               : NONE *! Type of initialization before MIX_DKN_TY 
mixdkninitnum                : 0 *! Number of steps before extrapolation of the 
mixdknreset                  : 50 *! Number of extrapolation steps between two  
mixngwfstype                 : NONE *! Type of mixing used to build new guess f 
mixngwfsnum                  : 0 *! Number of coefficients used to build new gu 
mixngwfsinittype             : NONE *! Type of initialization before MIX_DKN_TY 
mixngwfsinitnum              : 0 *! Number of steps before extrapolation of the 
mixngwfsreset                : 50 *! Number of extrapolation steps between two  
mixngwfscoeff                : 0.100000000000000 *! Mix the propagated NGWFs wi 
mixlocallength               : 10.0000000000000      bohr *! Max radius for loc 
mixlocalsmear                : 5.00000000000000      bohr *! Radial smearing fo 
condreaddenskern             : F *! Read in conduction density kernel (Boolean) 
condreadtightboxngwfs        : F *! Read in universal tightbox conduction NGWFs 
condfixedshift               : F *! Fixed projected conduction Hamiltonian shif 
condcalcmaxeigen             : T *! Calculate maximum conduction Hamiltonian ei 
condnumstates                : 0 *! Number of conduction states to be optimised 
condmaxitlnv                 : 10 *! Max number of LNV iterations during conduc 
condminitlnv                 : 10 *! Min number of LNV iterations during conduc 
condkernelcutoff             : 1000.00000000000      bohr *! Conduction density 
condinitshift                : 0.000000000000000E+000 hartree *! Initial shifti 
condshiftbuffer              : 0.100000000000000      hartree *! Additional buf 
condnumextrastates           : 0 *! Number of extra conduction states for initi 
condnumextraits              : 0 *! Number of NGWF iterations with extra conduc 
condplotjointorbitals        : T *! Plot orbitals in the joint basis following  
condplotvcorbitals           : T *! Plot orbitals in the val and cond NGWF basi 
condcalcopticalspectra       : F *! Calculate matrix elements for optical absor 
condspeccalcmommatels        : T *! Calculate momentum matrix elements (default 
condspeccalcnonloccomm       : T *! Calculate nonlocal commutator for momentum  
condspeccontderiv            : T *! Calculate non-local commuator using continu 
condspecnonloccommshift      : 1.000000000000000E-004 *! Finite difference shif 
condspecprintmatels          : F *! Write optical matrix elements to file (Bool 
condspecoptsmear             : 3.674932438755288E-003 hartree *! Half width of  
condspecscissorop            : 0.000000000000000E+000 hartree *! Scissor operat 
condcalceels                 : F *! Calculate matrix elements for electron ener 
lrtddftcalculate             : F *! enables LR-TDDFT calculation (Boolean)      
lrtddftnumstates             : 1 *! Sets the number of excitation energies we w 
lrtddftcgthreshold           : 1.000000000000000E-006 *! sets convergence toler 
lrtddftpenaltytol            : 1.000000000000000E-008 *! sets the convergence t 
lrtddftmaxitpen              : 20 *! sets the maximum number of iterations for  
lrtddftmaxitcg               : 60 *! sets the maximum number of iterations for  
lrtddftresetcg               : 100 *! sets the number of iterations after which 
lrtddftkernelcutoff          : 1000.00000000000      bohr *! sets cutoff on the 
lrtddftwritedensities        : T *!Determines whether to write out TDDFT respon 
lrtddftwritekernels          : F *! writes out response kernels after each iter 
lrtddftrestart               : F *! Restart flag for the LR_TDDFT option (Boole 
lrtddfttriplet               : F *! DEtermines if triplet states are calculated 
lrtddftprojector             : T *! Use projector onto unoccupied subspace (Boo 
lrtddftjointset              : T *! Use joint set to represent cond states (Boo 
lrtddftpreopt                : T *! Refine starting guess in preoptimisation ro 
lrtddftpreoptiter            : 20 *! Number of preoptimisation iterations (Inte 
lrtddftanalysis              : F *! Do a full O(N^3) analysis of TDDFT transiti 
etransbulk                   : F *! Compute electronic transport coefficients ( 
etranslcr                    : F *! Compute electronic transport coefficients ( 
etranssameleads              : F *! Use same description for all leads (Boolean 
etranswritehs                : F *! Write hamiltonian corresponding to transpor 
etransecmplx                 : 1.000000000000000E-006 hartree *! Imaginary part 
etransemax                   : 0.200000000000000      hartree *! Highest energy 
etransemin                   : -0.200000000000000      hartree *! Lowest energy 
etransenum                   : 50 *! Number of energy points for the calculatio 
etranseref                   : 0.000000000000000E+000 hartree *! Reference ener 
etranserefmethod             : DIAG *! The method used to determine the referen 
etranscalculateleadmu        : F *! Calculate the lead chemical potentials (Boo 
etransleadnkpoints           : 32 *! Number of kpoints to use to determine lead 
etransleaddisptol            : 1.00000000000000      bohr *! The maximum accept 
anhqcfactor                  : HARMONIC *! Quantum correction factor in IR spec 
anhacffactor                 : NONE *! Prefactor for the autocorrelation functi 
anhtype                      : IR_CALCULATION *! Describe the type of calculati 
anhfirstiter                 : 0 *! First md iteration to include in the autoco 
anhlastiter                  : 0 *! Last md iteration to include in the autocor 
anhmdtemp                    : 0.000000000000000E+000 kelvin *! Temperature in  
anhplotfirstfreq             : 0.000000000000000E+000 1/cm *! First freq to be  
anhplotlastfreq              : 0.000000000000000E+000 1/cm *! Last freq to be s 
anhplotall                   : F *! Plot the whole IR spectrum (Boolean)        
anhapplyfilter               : F *! Apply the gaussian filter (Boolean)         
phononfarmingtask            : 0 *! Operation to perform for phonon calc (for t 
phononsampling               : 1 *! Default number of sampling points for finit 
phononvibfree                : 7 *! Default allowed vibrational degrees of free 
phononfinitedisp             : 0.100000000000000      bohr *! Amplitude of the  
phononfmax                   : 5.000000000000000E-003 ha/bohr *! Maximum force  
phononenergycheck            : F *! Check total energy of system doesn't decrea 
phonontmin                   : 0.000000000000000E+000 hartree *! Lower bound of 
phonontmax                   : 2.000000000000000E-003 hartree *! Upper bound of 
phonondeltat                 : 1.500000000000000E-005 hartree *! Temperature st 
phononminfreq                : 3.600000000000000E-006 hartree *! Discard phonon 
phononwriteeigenvecs         : F *! Write phonon mode eigenvectors to file (Boo 
phononanimatescale           : 1.00000000000000 *! Scaling factor for phonon mo 
phonondosmin                 : 0.000000000000000E+000 *! Lower bound of frequen 
phonondosmax                 : 1000.00000000000 *! Upper bound of frequency ran 
phonondosdelta               : 10.0000000000000 *! Frequency step (in cm^-1) fo 
phonondos                    : T *! Calculate phonon DOS from MP grid and write 
phononsk                     : F *! Use Slater-Koster style interpolation for q 
bskpointpathspacing          : 0.188972700000000      1/bohr *! K-point spacing 
bsnumeigenvalues             : -1 *! Num of energy and occ. eigenvalues to prin 
bsunfold                     : 0 0 0 *! Number of times to unfold Brillouin zon 
bsmethod                     : TB *! Method to use: 'KP' or 'TB' (String)       
dotddft                      : F *! Allow Time-Dependent DFT calculation (Boole 
tddftmaximumenergy           : 1.00000000000000      hartree *! Desired maximum 
tddftresolution              : 1.000000000000000E-003 hartree *! Desired resolu 
tddftpropagationmethod       : CRANKNICHOLSON *! Method used to integrate von N 
tddftsparsitylevel           : 0 *! Matrix sparsity when computing propagators  
tddfttammdancoff             : F *! Invoke Tamm-Dancoff decoupling approximatio 
tddftdipolekickstrength      : 0.0 0.0 0.0 *! Maximum allowed phase shift in TD 
tddftxcfunctional            : LDA *! Exchange-correlation functional for TDDFT 
tddfthamiltonianmixing       : 0 *! Order of polynomial extrapolation to H(t +  
tddftdamping                 : 0.000000000000000E+000 hartree *! Energy smearin 
tddftenforcedidempotency     : F *! Project out at each timestep that part of c 
tddftmaxithotelling          : 50 *! Number of Hotelling iteration per propagat 
tddftmaxresidhotelling       : 1.000000000000000E-018 *! Max allowed value in H 
tddftinvoverlapexact         : T *! Renew inverse overlap with O N^3 algorithm  
isimplicitsolvent            : F *! Use implicit solvent? (Boolean)             
issmearedionrep              : F *! Implicit solvent: use smeared ions for elec 
isseparaterestartfiles       : F *! If true, dielectric cavity will be construc 
isautosolvation              : F *! If true, vacuum calculation will automatica 
isincludecavitation          : F *! Implicit solvent: include cavitation energy 
isdensitythreshold           : 7.800000000000000E-004 *! Implicit solvent: rho_ 
issolvationbeta              : 1.30000000000000 *! Implicit solvent: beta param 
isbulkpermittivity           : 1.00000000000000 *! Implicit solvent: eps_inf pa 
ismultigriddefecterrortol    : 1.000000000000000E-002 *! Implicit solvent: stop 
ismultigriderrortol          : 1.000000000000000E-005 *! Implicit solvent: stop 
issmearedionwidth            : 0.800000000000000      bohr *! Implicit solvent: 
iscorewidth                  : 1.20000000000000      bohr *! Implicit solvent:  
issurfacethickness           : 2.000000000000000E-004 *! Implicit solvent: thic 
issolventsurfacetension      : 4.762400000000000E-005 ha/bohr**2 *! Implicit so 
ismultigridmaxiters          : 100 *! Implicit solvent: max number of iteration 
ismultigridnlevels           : 4 *! Implicit solvent: number of levels in multi 
isdiscretizationorder        : 8 *! Implicit solvent: discretization order (2nd 
isbccoarseness               : 5 *! Open BCs: controls boundary condition coars 
isbcsurfacecoarseness        : 1 *! Open BCs: controls boundary condition coars 
isbcthreshold                : 1.000000000000000E-009 *! Open BCs: controls bou 
ischecksolvenergygrad        : F *! Implicit solvent: sanity check the energy g 
issolvationmethod            : DIRECT *! Implicit solvent: direct or corrective 
isdielectricmodel            : FIX_INITIAL *! Implicit solvent: how the cavity  
isdielectricfunction         : FGF *! Implicit solvent: how the cavity is deter 
issolvationoutputdetail      : NONE *! Implicit solvent: controls extra output  
openbcionion                 : F *! Force open BCs in ion-ion energy (Boolean)  
openbchartree                : F *! Force open BCs in Hartree potential (Boolea 
openbcpspot                  : F *! Force open BCs in local pseudopotential (Bo 
openbcpspotfinetunenptsx     : 100000 *! Open BCs in local pseudo, npts_x param 
openbcpspotfinetunealpha     : 0.300000000000000 *! Open BCs in local pseudo, a 
openbcpspotfinetunef         : -1 *! Open BCs in local pseudo, fineness paramet 
hfxintegration               : 2 *! Variant of the numerical pointwise approach 
hfxcutoff                    : 1000.00000000000      bohr *! HFx cutoff radius  
hfxnlppforexchange           : F *! Give exchange matrix same sparsity as non-l 
hfxradialsegments            : 50 *! Number of radial segments in vmatrix evalu 
hfxangularsegments           : 50 *! Number of angular segments in vmatrix eval 
hfxcheborder                 : 16 *! Order for Chebyshev interpolation (Integer 
hfxchebintervals             : 14 *! Number of intervals Chebyshev interpolatio 
hfxchebabatchsize            : 10 *! Number of SW expansions buffered (Integer) 
hfxchebbbatchsize            : 10 *! Number of SW pot expansions buffered (Inte 
hfxmaxl                      : 4 *! Maximum quantum number l used for SW expans 
hfxmaxzeros                  : 10 *! Maximum number of Bessel zeros used for SW 
hfxreadvmatrix               : F *! Read restart information for the V matrix ( 
hfxwritevmatrix              : F *! Write restart information for the V matrix  
hfxreadxmatrix               : F *! Read restart information for the X matrix ( 
hfxwritexmatrix              : F *! Write restart information for the X matrix  
hfxdebug                     : F *! Debug HFx? (Boolean)                        
hfxmetric                    : ELECTROSTATIC *! Electrostatic or overlap metric 
hfxoverlapindirect           : F *! Inversions done for overlap metric (Boolean 
hfximproveinverse            : F *! Use Hotelling improvement when calculating  
hfxcthreshold                : 0.000000000000000E+000 *! Absolute magnitude bel 
hfxcachelimitforsnpos        : 1024 *! Max cache size for SWOP-NGWF-product ove 
hfxcachelimitforswops        : 1024 *! Max cache size for SWs or SWpots in PPDs 
hfxcachelimitforwmats        : 1024 *! Max cache size for W-matrices (in MiB) ( 
hfxcachelimitforexpansions   : 1024 *! Max cache size for expansions (tb_swpot_ 
hfxcachelimitforps           : 1024 *! Max cache size for p_beta_delta (in MiB) 
hfxcachelimitforngwfs        : 256 *! Max cache size for remote NGWFs (in MiB)  
hfxcachelimitfordknblks      : 50 *! Max cache size for remote DKN blocks (in M 
zerototalforce               : T *! Subtract avg force to ensure Newton's 3rd l 
ddeccalculate                : F *! Performs DDEC charge analysis (Boolean)     
ddecwriterad                 : F *! Write DDEC partial radial density for each  
ddecclassicalhirshfeld       : F *! DDEC range of IH (+/-) ionic reference stat 
ddecradnpts                  : 100 *! Number of spherical shells per atom (Inte 
ddecradrcut                  : 10.0000000000000      bohr *! Radius of largest  
ddecmaxit                    : 2000 *! Maximum number of DDEC iterations (Integ 
ddecconvthreshold            : 2.000000000000000E-005 *! DDEC charge convergenc 
ddecihfraction               : 0.214285714285714 *! DDEC IH fraction (Double Pr 
ddeczerothreshold            : 1.000000000000000E-007 *! DDEC threshold to negl 
ddecihionicrange             : 2 *! DDEC range of IH (+/-) ionic reference stat 
ddecatomsolvemaxit           : 480 *! Maximum number of iterations for the atom 
ddecrcompmaxit               : 50 *! Maximum number of iterations for finding r 
ddectargetradius             : 11.5000000000000      bohr *! DDEC force target  
ddecrcompeconv               : 5.000000000000000E-008 hartree *! Energy converg 
ddecwritercomp               : F *! Write compensated ionic densities for all r 
ddecrefdensinit              : T *! Initialize ISA guess densities as neutral r 
ddecrenormalizerefdens       : F *! Renormalize reference densities (Boolean)   
ddecmultipole                : F *! Compute DDEC dipoles and quadrupoles (Boole 
ddecmoment                   : F *! Compute DDEC moment (Boolean)               
ddecmomentorder              : 1 *! Order of DDEC moment (Integer)              
ddecinterpraddens            : F *! Interpolate converged radial densities for  
ddecavgrad                   : F *! Compute expected radius of each atom based  
ddecminshelldens             : 100.000000000000 *! Minimum number of points per 
ddecrmse                     : F *! Calculate DDEC point charge RMS V(r) (Boole 
writenbo                     : F *! Performs Natural Population Analysis and wr 
nboinitlclowdin              : T *! Performs atom-centered Lowdin symmetric ort 
nbowritelclowdin             : F *! Write a GENNBO FILE.47 containing all the a 
nbowritenpacomp              : F *! Writes individual NAO population into the s 
nboscaledm                   : T *! Scales density matrix in the FILE.47 output 
nbowritedipole               : F *! Writes dipole matrix to FILE.47 (Boolean)   
nboscalespin                 : T *! Whether or not partial density matrices for 
nbopnaoanalysis              : F *! S/P/D/F CHARACTER ANALYSIS ON PNAO. (Boolea 
nboaopnaoscheme              : ORIGINAL *! AO to PNAO scheme to use in generati 
plotnbo                      : F *! Plot NBO's orbitals from FILE.xx as defined 
nboplotorbtype               : *! Type of GENNBO-generated orbital to plot. (St 
threadsmax                   : 1 *! Number of threads in outer loops (Integer)  
threadsnumfftboxes           : 1 *! Number of threads to use in OpenMP-parallel 
threadsperfftbox             : 1 *! Number of nested threads used for FFT box o 
threadspercellfft            : 1 *! Number of threads to use in OpenMP-parallel 
threadsnummkl                : 1 *! Number of threads to use in OpenMP-parallel 
%block positionsabs          : *! Cartesian positions for each atom (Block)     
O 47.82274073160245      47.25667645460973      45.98252560975496               
H 49.02657873213836      46.37388321646128      47.05079896262087               
H 48.98893597357800      48.00111084095992      44.77769116409311               
%endblock positionsabs       : *! Cartesian positions for each atom (Block)     
%block latticecart           : *! The simulation cell lattice vectors (Block)   
94.486315649999995      0.000000000000000       0.000000000000000               
0.000000000000000       94.486315649999995      0.000000000000000               
0.000000000000000       0.000000000000000       94.486315649999995              
%endblock latticecart        : *! The simulation cell lattice vectors (Block)   
%block species               : *! Species information (symbol, atomic number, n 
O O 8 4 6.0                                                                     
H H 1 1 7.0                                                                     
%endblock species            : *! Species information (symbol, atomic number, n 
%block speciespot            : *! Pseudopotential name for each species (Block) 
O O_00PBE_OP.recpot                                                             
H H_00PBE_OP.recpot                                                             
%endblock speciespot         : *! Pseudopotential name for each species (Block) 
%block speciesatomicset      : *! Atomic set name for each species (Block)      
O SOLVE                                                                         
H SOLVE                                                                         
%endblock speciesatomicset   : *! Atomic set name for each species (Block)      
%block speciesconstraints    : *! Ionic constraints for each species (Block)    
O NONE                                                                          
H NONE                                                                          
%endblock speciesconstraints : *! Ionic constraints for each species (Block)    
-------------------------------------------------------------------------------
-------------------------------------------------------------------------------

<<<<<<<<<<<<<<<<<<<<<<<<< Pseudopotential information >>>>>>>>>>>>>>>>>>>>>>>>>
File: O_00PBE_OP.recpot [ 2001 points up to Gmax=  52.9 (1/bohr)]
  Atomic number:  8;  ionic charge:  6.000000
    Shell 1: l = 1; rc = 1.54 bohr
File: H_00PBE_OP.recpot [ 2001 points up to Gmax=  52.9 (1/bohr)]
  Atomic number:  1;  ionic charge:  1.000000
    Local potential
<<<<<<<<<<<<<<<<<<<<<<<<<<<<<<<<<<<<<<< >>>>>>>>>>>>>>>>>>>>>>>>>>>>>>>>>>>>>>>

------------------------- Atom counting information ---------------------------
Symbol    Natoms    Nngwfs    Nprojs
  O          1         4         3
  H          2         2         0
.......   ......    ......    ......
Totals:      3         6         3
-------------------------------------------------------------------------------
 
============================== PSINC grid sizes ================================
                      Simulation cell:  132 x 132 x 132
                              FFT-box:   63 x  63 x  63
                                  PPD:    6 x   6 x   1
Grid space d1=  0.715805421591a0 (KE cutoff=  14.82566Eh = 403.42673eV)
Grid space d2=  0.715805421591a0 (KE cutoff=  14.82566Eh = 403.42673eV)
Grid space d3=  0.715805421591a0 (KE cutoff=  14.82566Eh = 403.42673eV)
================================================================================

********************** Fourier parallelisation information *********************
       Coarse grid (whole simulation cell) dimensions:    132   132   132
          Real-space ('12') slabs/node (min max mean):     44    44    44
         Recip-space ('23') slabs/node (min max mean):     22    23    22
********************************************************************************

********************** Fourier parallelisation information *********************
       Double grid (whole simulation cell) dimensions:    264   264   264
          Real-space ('12') slabs/node (min max mean):     88    88    88
         Recip-space ('23') slabs/node (min max mean):     44    45    44
********************************************************************************

Determining parallel strategy ...
... using space-filling curve
... NGWF load balancing: max      4;  min      1;  average      2
... Projector load balancing: max      3;  min      0;  average      1
... done
Calculating Ewald energy ...
              Ewald: real-space energy =       6.571766
        Ewald: reciprocal-space energy =       0.081892
         Ewald: (sum_charge)**2 Energy =       0.234823
         Ewald: (sum_charge**2) Energy =       0.482986
                          Ewald Energy =       5.935849
Basis initialisation ...
... Atom positions lie inside simulation cell
... NGWF spheres initialised
... Projector spheres initialised
... NGWF tight boxes initialised
... Tight-boxes gathered
... NGWF basis size (local,global):       2356     10364
... Nonlocal pseudopotential projector initialisation
... done

=========================== Sparse matrix information ==========================
                        Overlap matrix filling: 100.00%
                        Density kernel filling: 100.00%
              NGWF-Proj overlap matrix filling: 100.00%
                    Hamiltonian matrix filling: 100.00%
                  NGWF diagonal matrix filling:  50.00%
                             KS matrix filling: 100.00% 
                           KSKS matrix filling: 100.00% 
================================================================================

Sparse matrix initialisation ... done

Atom SCF Calculation for O  : Z (AE atom) =   8 : Z (PS atom) =   6
Config String:
Orbitals (num,occ):  2     2.00 4.00
Orbitals   (num,l):  2        0    1
Real-space Grid (nr,dr,rmax):  637    0.0094339623    6.0000000000
Spherical Bessel Basis (nsws,lmax,cutoff):   25    1   88.1975861389
Confining potential (l,width,scale):  0    3.0000000000  100.0000000000
Confining potential (l,width,scale):  1    3.0000000000  100.0000000000
  1 3216.4518354715   -7.1202816974   10.1554512533   -2.4512395525
  2 1275.3268459984   -3.1443812453   13.3511488054   -3.1747088977
  3  655.6100215422   -2.9485004107   13.5591716205   -3.2265097030
  4  333.4383110991   -2.9071229743   13.6038731329   -3.2393597159
  5  165.9195334793   -2.8936012298   13.6186080893   -3.2442341554
  6   78.8111333398   -2.8876998472   13.6250676297   -3.2465384671
  7   33.5149711848   -2.8848489821   13.6281943061   -3.2476984221
  8    9.9610079041   -2.8834315976   13.6297503547   -3.2482910000
  9   -2.2870418903   -2.8827209226   13.6305310368   -3.2485948083
 10   -8.6560240825   -2.8823635388   13.6309238114   -3.2487507577
 11  -11.9678934703   -2.8821835875   13.6311216658   -3.2488308715
 12  -13.6900650503   -2.8820929160   13.6312213986   -3.2488720574
 13  -14.5855940943   -2.8820472100   13.6312716928   -3.2488932467
 14  -15.0512691430   -2.8820241631   13.6312970640   -3.2489041566
 15  -15.2934201584   -2.8820125389   13.6313098662   -3.2489097782
 16  -15.4193386906   -2.8820066745   13.6313163278   -3.2489126774
 17  -15.4848163341   -2.8820037152   13.6313195901   -3.2489141737
 18  -15.5188647147   -2.8820022215   13.6313212375   -3.2489149466
 19  -15.5365698769   -2.8820014674   13.6313220696   -3.2489153462
 20  -15.5457765642   -2.8820010866   13.6313224901   -3.2489155530
 21  -15.5505640434   -2.8820008943   13.6313227026   -3.2489156600
 22  -15.5530535338   -2.8820007971   13.6313228100   -3.2489157156
 23  -15.5543480695   -2.8820007479   13.6313228644   -3.2489157443
 24  -15.5550212284   -2.8820007231   13.6313228919   -3.2489157593
 25  -15.5553712713   -2.8820007105   13.6313229058   -3.2489157671
 26  -15.5555532937   -2.8820007042   13.6313229129   -3.2489157711
 27  -15.5556479455   -2.8820007009   13.6313229164   -3.2489157732
 28  -15.5556971644   -2.8820006993   13.6313229182   -3.2489157743
 29  -15.5557227583   -2.8820006985   13.6313229191   -3.2489157749
 30  -15.5557360672   -2.8820006981   13.6313229196   -3.2489157752
 31  -15.5557429878   -2.8820006979   13.6313229199   -3.2489157753
 32  -15.5557465865   -2.8820006978   13.6313229200   -3.2489157754
 33  -15.5557484578   -2.8820006977   13.6313229200   -3.2489157755
 34  -15.5557494309   -2.8820006977   13.6313229201   -3.2489157755
 35  -15.5557499369   -2.8820006977   13.6313229201   -3.2489157755
 36  -15.5557502000   -2.8820006976   13.6313229201   -3.2489157755
 37  -15.5557503369   -2.8820006976   13.6313229201   -3.2489157755
 38  -15.5557504080   -2.8820006976   13.6313229201   -3.2489157755
Atom SCF converged after  38 iterations to a total energy of    -15.55575041

Atom SCF Calculation for H  : Z (AE atom) =   1 : Z (PS atom) =   1
Config String:
Orbitals (num,occ):  1     1.00
Orbitals   (num,l):  1        0
Real-space Grid (nr,dr,rmax):  743    0.0094339623    7.0000000000
Spherical Bessel Basis (nsws,lmax,cutoff):   29    0   88.1975861389
Confining potential (l,width,scale):  0    3.0000000000  100.0000000000
  1    0.7969497866   -0.2366611669    0.2820958379   -0.2424203193
  2    0.0538812189   -0.2313080165    0.2928169574   -0.2507426696
  3   -0.1895436177   -0.2279873646    0.2972577104   -0.2550145904
  4   -0.3166545632   -0.2261622485    0.2995698433   -0.2573933276
  5   -0.3827326249   -0.2252586999    0.3006887270   -0.2586114587
  6   -0.4170290708   -0.2248312905    0.3012095359   -0.2592129523
  7   -0.4348256948   -0.2246337795    0.3014464782   -0.2595053297
  8   -0.4440639385   -0.2245437141    0.3015526627   -0.2596467076
  9   -0.4488626017   -0.2245029852    0.3015997046   -0.2597151066
 10   -0.4513570340   -0.2244846751    0.3016203291   -0.2597483265
 11   -0.4526546589   -0.2244764836    0.3016292714   -0.2597645548
 12   -0.4533301840   -0.2244728364    0.3016330969   -0.2597725377
 13   -0.4536820931   -0.2244712214    0.3016347045   -0.2597764940
 14   -0.4538655343   -0.2244705112    0.3016353634   -0.2597784697
 15   -0.4539612142   -0.2244702018    0.3016356234   -0.2597794639
 16   -0.4540111471   -0.2244700687    0.3016357197   -0.2597799679
 17   -0.4540372193   -0.2244700125    0.3016357515   -0.2597802250
 18   -0.4540508395   -0.2244699895    0.3016357592   -0.2597803571
 19   -0.4540579581   -0.2244699804    0.3016357589   -0.2597804254
 20   -0.4540616803   -0.2244699771    0.3016357567   -0.2597804608
 21   -0.4540636274   -0.2244699760    0.3016357545   -0.2597804793
 22   -0.4540646464   -0.2244699758    0.3016357529   -0.2597804890
 23   -0.4540651799   -0.2244699759    0.3016357517   -0.2597804941
 24   -0.4540654593   -0.2244699760    0.3016357510   -0.2597804967
 25   -0.4540656057   -0.2244699761    0.3016357506   -0.2597804982
 26   -0.4540656825   -0.2244699762    0.3016357503   -0.2597804989
Atom SCF converged after  26 iterations to a total energy of     -0.45406568
NGWF initialisation ...... done
============ Calculation of NGWF S^-1 using Hotelling algorithm ================ 
         Iteration  |  Frobenius norm and Maximum abs value    (of I-S*S_n^-1)   
               1       0.20340203E+01     0.85148713E+00
               2       0.18212267E+01     0.72855715E+00
               3       0.15669805E+01     0.57389025E+00
               4       0.13132948E+01     0.49778914E+00
               5       0.10971380E+01     0.42539981E+00
               6       0.84177178E+00     0.32891569E+00
               7       0.50288500E+00     0.19871662E+00
               8       0.18150202E+00     0.72892543E-01
               9       0.24583869E-01     0.99797099E-02
              10       0.49963918E-03     0.19766841E-03
              11       0.23587248E-06     0.87944609E-07
              12       0.55189493E-13     0.20095037E-13
================================================================================
Up spin density kernel initialisation ... 
======= Optimisation of K by Palser-Manolopoulos canonical purification ======== 
         Iteration  |  Band structure energy |    c_n   
               1          -1.74820629273288    0.5877094
               2          -1.81762954266269    0.5780276
               3          -1.90696161521349    0.5631467
               4          -2.01165758083886    0.5444845
               5          -2.11371280069717    0.5279139
               6          -2.18539193823304    0.5147895
               7          -2.21677073209459    0.5029256
               8          -2.22364298965715    0.5000634
               9          -2.22399438301580    0.5000000
              10          -2.22399529879721    0.5003347
              11          -2.22399529880352    0.5003347
Termination criterion satisfied: band energy change below threshold.
Final occupancy bounds: [   -0.00000000000000:    0.99999999999999]
Closest occupancy to 0.5:     1.00000000000000
================================================================================
... done

Writing density kernel to file "water.dkn" ... done
   Initial electron number for spin 1:       8.00000000
     Final electron number for spin 1:       8.00000000
................................................................................
<<<<<<<<<<<<<<<< Penalty functional density kernel optimisation >>>>>>>>>>>>>>>>
~~~~~~~~~~~~~~~~~~~~~~~~~~~~~~~~~~~~~~~~~~~~~~~~~~~~~~~~~~~~~~~~~~~~~~~~~~~~~~~~
iter|       energy      |   rms grad  |  commutator |LScoef|CGcoef|      Ne    |
      Q0=E0+P0:     -16.453653065061=    -16.453653065061+      0.000000000000
    Trial step:       1.000000000000
            G0:      -3.693072646387
WARNING: minimum value of charge density: -0.0452
      Q1=E1+P1:      49.335349436128=    -20.017075914131+     69.352425350259
Quadratic term:     -69.482075147577
   Linear term:      -3.693072646387
  Optimal step:       0.026575722145
 Predicted min:     -16.502726101317
    !!! Quadratic minimum step length accepted !!!
 1    -16.45365306506120 0.32028948045 0.03294696061 0.0266  0.000    8.00000000
      Q0=E0+P0:     -16.540802620305=    -16.551682289697+      0.010879669391
    Trial step:       0.163020618773
            G0:      -0.021930279648
      Q1=E1+P1:     -16.544255945104=    -16.555314270828+      0.011058325723
Quadratic term:      -0.000121762959
   Linear term:      -0.003575087758
  Optimal step:       2.393227879290
 Predicted min:     -16.567044698632
    !!! Quadratic minimum step length accepted !!!
 2    -16.55168228969673 0.24667278351 0.03419548722 2.3932 -0.763    8.00000000
      Q0=E0+P0:     -16.563395983531=    -16.589398691657+      0.026002708127
    Trial step:       0.624616274001
            G0:      -2.089734129965
WARNING: minimum value of charge density: -0.0011
      Q1=E1+P1:      -8.151626379841=    -18.270795568673+     10.119169188832
Quadratic term:      -9.717051549602
   Linear term:      -1.305281945912
  Optimal step:       0.041952043859
 Predicted min:     -16.607230292467
    !!! Quadratic minimum step length accepted !!!
 3    -16.58939869165745 0.24187321602 0.02758143088 0.0420  3.234    8.00000000

======================== Penalty functional minimisation =======================
   Final total energy     :     -16.705877621332
   Final penalty energy   :       0.074176363868
   RMS occupancy error    :       0.055594
   Occupancy bounds       : [-0.054, 1.079]
================================================================================

Finished density kernel iterations (   3)

Writing density kernel to file "water.dkn" ... done

################################################################################
########################### NGWF CG iteration  001 #############################
################################################################################
****** Reciprocal space K.E. preconditioning with k_zero =  3.0000 a0^-1 *******
   Initial electron number for spin 1:       8.00000000
     Final electron number for spin 1:       8.00000000

=================== Penalty functional idempotency correction ==================
 RMS occupancy error at iteration   1:  0.055594 (step -0.4144 Ne1=      8.0000)
 RMS occupancy error at iteration   2:  0.002225 (step -0.4996 Ne1=      8.0000)
 RMS occupancy error at iteration   3:  0.000012 (step -0.5000 Ne1=      8.0000)
            Final RMS occupancy error   :  0.000000 (Ne1=      8.0000)
               Final occupancy bounds   : [  0.0000,  1.0000]
================================================================================

................................................................................
<<<<<<<<<<<<<< LNV (Original version) density kernel optimisation >>>>>>>>>>>>>>
~~~~~~~~~~~~~~~~~~~~~~~~~~~~~~~~~~~~~~~~~~~~~~~~~~~~~~~~~~~~~~~~~~~~~~~~~~~~~~~~
iter|       energy      |  rms DeltaK |  commutator |LScoef|CGcoef|      Ne    |
      ideal mu1:      -0.531591020636
             Q0:     -16.462399129861
             G0:      -0.045223690167
   RMS gradient:       0.035443103924
     Trial step:       0.500000000000
             Q1:     -16.467558009319
 Quadratic coef:       0.017452965625
 Linear coef   :      -0.022611845083
           Qmin:     -16.469723036139
Quadratic minimum step length (  0.323896889064) accepted
    Initial Ne1:       7.99999999
      Final Ne1:       8.00000000

=================== Penalty functional idempotency correction ==================
 RMS occupancy error at iteration   1:  0.001006 (step -0.4980 Ne1=      8.0000)
 RMS occupancy error at iteration   2:  0.000001 (step -0.5000 Ne1=      8.0000)
            Final RMS occupancy error   :  0.000000 (Ne1=      8.0000)
               Final occupancy bounds   : [  0.0000,  1.0000]
================================================================================

 1    -16.46239912986075 0.00000000000 0.02658232789 0.3239  0.000    8.00000000
      ideal mu1:      -0.497307078488
             Q0:     -16.469718705291
             G0:      -0.000405662375
   RMS gradient:       0.003350016773
     Trial step:       0.402428185559
             Q1:     -16.469845453482
 Quadratic coef:       0.000036501783
 Linear coef   :      -0.000163249974
           Qmin:     -16.469901234415
Quadratic minimum step length (  0.899906596172) accepted
    Initial Ne1:       8.00000000
      Final Ne1:       8.00000000

=================== Penalty functional idempotency correction ==================
 RMS occupancy error at iteration   1:  0.000111 (step -0.4998 Ne1=      8.0000)
            Final RMS occupancy error   :  0.000000 (Ne1=      8.0000)
               Final occupancy bounds   : [  0.0000,  1.0000]
================================================================================

 2    -16.46971870529146 0.00091548828 0.00251251258 0.8999  0.009    8.00000000
      ideal mu1:      -0.497432507829
             Q0:     -16.469901292442
             G0:      -0.000043017060
   RMS gradient:       0.001092986688
     Trial step:       0.601787153959
             Q1:     -16.469912831679
 Quadratic coef:       0.000014347877
 Linear coef   :      -0.000025887114
           Qmin:     -16.469912969129
Quadratic minimum step length (  0.542886324962) accepted
    Initial Ne1:       8.00000002
      Final Ne1:       8.00000000

=================== Penalty functional idempotency correction ==================
 RMS occupancy error at iteration   1:  0.000014 (step -0.5000 Ne1=      8.0000)
            Final RMS occupancy error   :  0.000000 (Ne1=      8.0000)
               Final occupancy bounds   : [  0.0000,  1.0000]
================================================================================

 3    -16.46990129244192 0.00002311185 0.00081974003 0.5429  0.106    8.00000000
      ideal mu1:      -0.498516517841
             Q0:     -16.469912973133
             G0:      -0.000001030794
   RMS gradient:       0.000169236506
     Trial step:       0.571578530407
             Q1:     -16.469913106777
 Quadratic coef:       0.000000455535
 Linear coef   :      -0.000000589179
           Qmin:     -16.469913163641
Quadratic minimum step length (  0.369633801878) accepted
    Initial Ne1:       7.99999999
      Final Ne1:       8.00000000

=================== Penalty functional idempotency correction ==================
 RMS occupancy error at iteration   1:  0.000000 (step -0.5000 Ne1=      8.0000)
            Final RMS occupancy error   :  0.000000 (Ne1=      8.0000)
               Final occupancy bounds   : [  0.0000,  1.0000]
================================================================================

 4    -16.46991297313264 0.00000161794 0.00012692738 0.3696  0.024    8.00000000
      ideal mu1:      -0.498376376662
             Q0:     -16.469913163636
             G0:      -0.000000081018
   RMS gradient:       0.000047439200
     Trial step:       0.459646326284
             Q1:     -16.469913193407
 Quadratic coef:       0.000000007469
 Linear coef   :      -0.000000037239
           Qmin:     -16.469913210056
Quadratic minimum step length (  1.145916224656) accepted
    Initial Ne1:       8.00000000
      Final Ne1:       8.00000000

=================== Penalty functional idempotency correction ==================
 RMS occupancy error at iteration   1:  0.000000 (step -0.5000 Ne1=      8.0000)
            Final RMS occupancy error   :  0.000000 (Ne1=      8.0000)
               Final occupancy bounds   : [  0.0000,  1.0000]
================================================================================

 5    -16.46991316363605 0.00000002444 0.00003557940 1.1459  0.079    8.00000000
      ideal mu1:      -0.498381815562
             Q0:     -16.469913210055
             G0:      -0.000000006767
   RMS gradient:       0.000013710412
     Trial step:       0.725752149767
             Q1:     -16.469913211529
 Quadratic coef:       0.000000003437
 Linear coef   :      -0.000000004911
           Qmin:     -16.469913211809
Quadratic minimum step length (  0.518547356293) accepted
    Initial Ne1:       8.00000000
      Final Ne1:       8.00000000

=================== Penalty functional idempotency correction ==================
 RMS occupancy error at iteration   1:  0.000000 (step -0.5000 Ne1=      8.0000)
            Final RMS occupancy error   :  0.000000 (Ne1=      8.0000)
               Final occupancy bounds   : [  0.0000,  1.0000]
================================================================================

 6    -16.46991321005456 0.00000000627 0.00001028281 0.5185  0.084    8.00000000
      ideal mu1:      -0.498382989583
             Q0:     -16.469913211809
             G0:      -0.000000000740
   RMS gradient:       0.000004532532
     Trial step:       0.613463005067
             Q1:     -16.469913211954
 Quadratic coef:       0.000000000308
 Linear coef   :      -0.000000000454
           Qmin:     -16.469913211976
Quadratic minimum step length (  0.451368334767) accepted
    Initial Ne1:       8.00000000
      Final Ne1:       8.00000000

=================== Penalty functional idempotency correction ==================
 RMS occupancy error at iteration   1:  0.000000 (step -0.5000 Ne1=      8.0000)
            Final RMS occupancy error   :  0.000000 (Ne1=      8.0000)
               Final occupancy bounds   : [  0.0000,  1.0000]
================================================================================

 7    -16.46991321180909 0.00000000024 0.00000339940 0.4514  0.000    8.00000000
      ideal mu1:      -0.498382122366
             Q0:     -16.469913211976
             G0:      -0.000000000070
   RMS gradient:       0.000001393526
     Trial step:       0.526210770545
             Q1:     -16.469913211997
 Quadratic coef:       0.000000000016
 Linear coef   :      -0.000000000037
           Qmin:     -16.469913211997
Quadratic minimum step length (  0.598756185585) accepted
    Initial Ne1:       8.00000000
      Final Ne1:       8.00000000

=================== Penalty functional idempotency correction ==================
 RMS occupancy error at iteration   1:  0.000000 (step -0.5000 Ne1=      8.0000)
            Final RMS occupancy error   :  0.000000 (Ne1=      8.0000)
               Final occupancy bounds   : [  0.0000,  1.0000]
================================================================================

 8    -16.46991321197596 0.00000000002 0.00000104514 0.5988  0.095    8.00000000
      ideal mu1:      -0.498382750301
             Q0:     -16.469913211997
             G0:      -0.000000000004
   RMS gradient:       0.000000349921
     Trial step:       0.561312705883
             Q1:     -16.469913211999
 Quadratic coef:       0.000000000001
 Linear coef   :      -0.000000000002
           Qmin:     -16.469913211999
Quadratic minimum step length (  0.774088359171) accepted
    Initial Ne1:       8.00000000
      Final Ne1:       8.00000000

=================== Penalty functional idempotency correction ==================
 RMS occupancy error at iteration   1:  0.000000 (step -0.5000 Ne1=      8.0000)
            Final RMS occupancy error   :  0.000000 (Ne1=      8.0000)
               Final occupancy bounds   : [ -0.0000,  1.0000]
================================================================================

 9    -16.46991321199698 0.00000000000 0.00000026244 0.7741  0.063    8.00000000
      ideal mu1:      -0.498382507177
10    -16.46991321199869 0.00000000000 0.00000012930 0.0000  0.000    8.00000000
Finished density kernel iterations (  10)

Writing density kernel to file "water.dkn" ... done

           ........................................................
           | *** NGWF optimisation not converged ***              |
           | RMS NGWF gradient =    0.01078033059859              |
           | Criteria not satisfied:                              |
           | -> RMS NGWF gradient higher than set threshold.      |
           ========================================================

------------------------------- NGWF line search -------------------------------
============ Calculation of NGWF S^-1 using Hotelling algorithm ================ 
         Iteration  |  Frobenius norm and Maximum abs value    (of I-S*S_n^-1)   
               1       0.21205602E-01     0.13709388E-01
               2       0.26658803E-03     0.18265366E-03
               3       0.45233611E-07     0.32615964E-07
               4       0.16070909E-14     0.11102230E-14
================================================================================
============ Calculation of NGWF S^-1 using Hotelling algorithm ================ 
         Iteration  |  Frobenius norm and Maximum abs value    (of I-S*S_n^-1)   
               1       0.27091319E-01     0.16810568E-01
               2       0.42885464E-03     0.27787339E-03
               3       0.11553142E-06     0.76476975E-07
               4       0.88331263E-14     0.61062266E-14
================================================================================
RMS gradient                =       0.01078033059859
Trial step length           =               0.122474
Gradient along search dir.  =         -2.05736348891
Functional at step 0        =     -16.46991321199869
Functional at step 1        =     -16.65887360322925
Functional predicted        =     -16.72180572730415
Selected quadratic step     =               0.244869
Conjugate gradients coeff.  =               0.000000
--------------------------- NGWF line search finished --------------------------
                                               
Writing NGWFs to file "water.tightbox_ngwfs"....  done

################################################################################
########################### NGWF CG iteration  002 #############################
################################################################################
****** Reciprocal space K.E. preconditioning with k_zero =  3.0000 a0^-1 *******
   Initial electron number for spin 1:       8.11757632
     Final electron number for spin 1:       8.00000000

=================== Penalty functional idempotency correction ==================
 RMS occupancy error at iteration   1:  0.010216 (step -0.4830 Ne1=      8.0000)
 RMS occupancy error at iteration   2:  0.000065 (step -0.5001 Ne1=      8.0000)
            Final RMS occupancy error   :  0.000000 (Ne1=      8.0000)
               Final occupancy bounds   : [  0.0000,  1.0000]
================================================================================

................................................................................
<<<<<<<<<<<<<< LNV (Original version) density kernel optimisation >>>>>>>>>>>>>>
~~~~~~~~~~~~~~~~~~~~~~~~~~~~~~~~~~~~~~~~~~~~~~~~~~~~~~~~~~~~~~~~~~~~~~~~~~~~~~~~
iter|       energy      |  rms DeltaK |  commutator |LScoef|CGcoef|      Ne    |
      ideal mu1:      -0.513477036752
             Q0:     -16.721661043891
             G0:      -0.024933998817
   RMS gradient:       0.026317505168
     Trial step:       0.659170411562
             Q1:     -16.726584255710
 Quadratic coef:       0.011512542444
 Linear coef   :      -0.016435754262
           Qmin:     -16.727527124722
Quadratic minimum step length (  0.470528684453) accepted
    Initial Ne1:       8.00000000
      Final Ne1:       8.00000000

=================== Penalty functional idempotency correction ==================
 RMS occupancy error at iteration   1:  0.001145 (step -0.4978 Ne1=      8.0000)
 RMS occupancy error at iteration   2:  0.000001 (step -0.5000 Ne1=      8.0000)
            Final RMS occupancy error   :  0.000000 (Ne1=      8.0000)
               Final occupancy bounds   : [  0.0000,  1.0000]
================================================================================

 1    -16.72166104389138 0.00000000000 0.01973812885 0.4705  0.000    8.00000000
      ideal mu1:      -0.483366892850
             Q0:     -16.727515143208
             G0:      -0.001892154821
   RMS gradient:       0.007230271865
     Trial step:       0.556918833029
             Q1:     -16.727991709526
 Quadratic coef:       0.000577210336
 Linear coef   :      -0.001053776655
           Qmin:     -16.727996096670
Quadratic minimum step length (  0.508365866017) accepted
    Initial Ne1:       8.00000000
      Final Ne1:       8.00000000

=================== Penalty functional idempotency correction ==================
 RMS occupancy error at iteration   1:  0.000283 (step -0.4995 Ne1=      8.0000)
            Final RMS occupancy error   :  0.000000 (Ne1=      8.0000)
               Final occupancy bounds   : [  0.0000,  1.0000]
================================================================================

 2    -16.72751514320754 0.00073326010 0.00542270390 0.5084  0.075    8.00000000
      ideal mu1:      -0.487578562948
             Q0:     -16.727997139170
             G0:      -0.000291944334
   RMS gradient:       0.002843914195
     Trial step:       0.532088831732
             Q1:     -16.728091751595
 Quadratic coef:       0.000060727895
 Linear coef   :      -0.000155340320
           Qmin:     -16.728096478259
Quadratic minimum step length (  0.680534448538) accepted
    Initial Ne1:       8.00000022
      Final Ne1:       8.00000000

=================== Penalty functional idempotency correction ==================
 RMS occupancy error at iteration   1:  0.000113 (step -0.4998 Ne1=      8.0000)
            Final RMS occupancy error   :  0.000000 (Ne1=      8.0000)
               Final occupancy bounds   : [  0.0000,  1.0000]
================================================================================

 3    -16.72799713917032 0.00006495615 0.00213293560 0.6805  0.155    8.00000000
      ideal mu1:      -0.486347685282
             Q0:     -16.728096652790
             G0:      -0.000002177077
   RMS gradient:       0.000245628289
     Trial step:       0.601751426816
             Q1:     -16.728097457281
 Quadratic coef:       0.000000505568
 Linear coef   :      -0.000001310059
           Qmin:     -16.728097501467
Quadratic minimum step length (  0.779647675501) accepted
    Initial Ne1:       8.00000011
      Final Ne1:       8.00000000

=================== Penalty functional idempotency correction ==================
 RMS occupancy error at iteration   1:  0.000001 (step -0.5000 Ne1=      8.0000)
            Final RMS occupancy error   :  0.000000 (Ne1=      8.0000)
               Final occupancy bounds   : [  0.0000,  1.0000]
================================================================================

 4    -16.72809665279033 0.00001453197 0.00018422121 0.7796  0.007    8.00000000
      ideal mu1:      -0.486584346727
             Q0:     -16.728097501452
             G0:      -0.000000895862
   RMS gradient:       0.000157759918
     Trial step:       0.684948247057
             Q1:     -16.728097722527
 Quadratic coef:       0.000000392544
 Linear coef   :      -0.000000613619
           Qmin:     -16.728097741252
Quadratic minimum step length (  0.535350074498) accepted
    Initial Ne1:       8.00000003
      Final Ne1:       8.00000000

=================== Penalty functional idempotency correction ==================
 RMS occupancy error at iteration   1:  0.000001 (step -0.5000 Ne1=      8.0000)
            Final RMS occupancy error   :  0.000000 (Ne1=      8.0000)
               Final occupancy bounds   : [  0.0000,  1.0000]
================================================================================

 5    -16.72809750145219 0.00000010726 0.00011831994 0.5354  0.413    8.00000000
      ideal mu1:      -0.486454615648
             Q0:     -16.728097741247
             G0:      -0.000000029390
   RMS gradient:       0.000028571583
     Trial step:       0.605546938800
             Q1:     -16.728097749684
 Quadratic coef:       0.000000009359
 Linear coef   :      -0.000000017797
           Qmin:     -16.728097749707
Quadratic minimum step length (  0.575717632415) accepted
    Initial Ne1:       8.00000000
      Final Ne1:       8.00000000

=================== Penalty functional idempotency correction ==================
 RMS occupancy error at iteration   1:  0.000000 (step -0.5000 Ne1=      8.0000)
            Final RMS occupancy error   :  0.000000 (Ne1=      8.0000)
               Final occupancy bounds   : [  0.0000,  1.0000]
================================================================================

 6    -16.72809774124700 0.00000004250 0.00002142869 0.5757  0.033    8.00000000
      ideal mu1:      -0.486467656821
             Q0:     -16.728097749707
             G0:      -0.000000004057
   RMS gradient:       0.000010615444
     Trial step:       0.590443943082
             Q1:     -16.728097750547
 Quadratic coef:       0.000000001555
 Linear coef   :      -0.000000002395
           Qmin:     -16.728097750629
Quadratic minimum step length (  0.454647840544) accepted
    Initial Ne1:       8.00000000
      Final Ne1:       8.00000000

=================== Penalty functional idempotency correction ==================
 RMS occupancy error at iteration   1:  0.000000 (step -0.5000 Ne1=      8.0000)
            Final RMS occupancy error   :  0.000000 (Ne1=      8.0000)
               Final occupancy bounds   : [  0.0000,  1.0000]
================================================================================

 7    -16.72809774970702 0.00000000111 0.00000796158 0.4546  0.000    8.00000000
      ideal mu1:      -0.486461885225
             Q0:     -16.728097750629
             G0:      -0.000000000525
   RMS gradient:       0.000003819906
     Trial step:       0.518115878626
             Q1:     -16.728097750792
 Quadratic coef:       0.000000000109
 Linear coef   :      -0.000000000272
           Qmin:     -16.728097750799
Quadratic minimum step length (  0.646661607842) accepted
    Initial Ne1:       8.00000000
      Final Ne1:       8.00000000

=================== Penalty functional idempotency correction ==================
 RMS occupancy error at iteration   1:  0.000000 (step -0.5000 Ne1=      8.0000)
            Final RMS occupancy error   :  0.000000 (Ne1=      8.0000)
               Final occupancy bounds   : [  0.0000,  1.0000]
================================================================================

 8    -16.72809775062912 0.00000000012 0.00000286493 0.6467  0.129    8.00000000
[...]

=================== Penalty functional idempotency correction ==================
 RMS occupancy error at iteration   1:  0.000000 (step -0.5000 Ne1=      8.0000)
            Final RMS occupancy error   :  0.000000 (Ne1=      8.0000)
               Final occupancy bounds   : [ -0.0000,  1.0000]
================================================================================

 4    -16.77704444021092 0.00000000000 0.00000032761 0.0015  0.928    8.00000000
      ideal mu1:      -0.511837897467
             Q0:     -16.777044440211
             G0:      -0.000000000032
   RMS gradient:       0.000000430503
     Trial step:       0.002456325857
             Q1:     -16.777044440211
 Quadratic coef:      -0.000000000000
 Linear coef   :      -0.000000000000
         Quadratic fit unsuccessful: proceeding to cubic fit
             Q2:     -16.777044440211
  Cubic LS coeff:       0.009898387905
Predicted energy:     -16.777044440211
Cubic minimum step length accepted
    Initial Ne1:       8.00000000
      Final Ne1:       8.00000000

=================== Penalty functional idempotency correction ==================
 RMS occupancy error at iteration   1:  0.000000 (step -0.5000 Ne1=      8.0000)
            Final RMS occupancy error   :  0.000000 (Ne1=      8.0000)
               Final occupancy bounds   : [  0.0000,  1.0000]
================================================================================

 5    -16.77704444021066 0.00000000000 0.00000032288 0.0099  0.971    8.00000000
      ideal mu1:      -0.511837955865
             Q0:     -16.777044440211
             G0:      -0.000000000027
   RMS gradient:       0.000000377761
     Trial step:       0.004930888983
             Q1:     -16.777044440211
 Quadratic coef:      -0.000000000000
 Linear coef   :      -0.000000000000
         Quadratic fit unsuccessful: proceeding to cubic fit
             Q2:     -16.777044440211
  Cubic LS coeff:       0.006949261006
Predicted energy:     -16.777044440211
Cubic minimum step length accepted
    Initial Ne1:       8.00000000
      Final Ne1:       8.00000000

=================== Penalty functional idempotency correction ==================
 RMS occupancy error at iteration   1:  0.000000 (step -0.5000 Ne1=      8.0000)
            Final RMS occupancy error   :  0.000000 (Ne1=      8.0000)
               Final occupancy bounds   : [  0.0000,  1.0000]
================================================================================

 6    -16.77704444021088 0.00000000000 0.00000028332 0.0069  0.770    8.00000000
      ideal mu1:      -0.511837994977
             Q0:     -16.777044440211
             G0:      -0.000000000004
   RMS gradient:       0.000000342536
     Trial step:       0.005853719718
             Q1:     -16.777044440212
 Quadratic coef:      -0.000000000000
 Linear coef   :      -0.000000000000
         Quadratic fit unsuccessful: proceeding to cubic fit
             Q2:     -16.777044440211
  Cubic LS coeff:       0.007626004379
Predicted energy:     -16.777044440212
Cubic minimum step length accepted
    Initial Ne1:       8.00000000
      Final Ne1:       8.00000000

=================== Penalty functional idempotency correction ==================
 RMS occupancy error at iteration   1:  0.000000 (step -0.5000 Ne1=      8.0000)
            Final RMS occupancy error   :  0.000000 (Ne1=      8.0000)
               Final occupancy bounds   : [ -0.0000,  1.0000]
================================================================================

 7    -16.77704444021117 0.00000000000 0.00000025690 0.0076  0.000    8.00000000
      ideal mu1:      -0.511838002491
             Q0:     -16.777044440211
             G0:      -0.000000000008
   RMS gradient:       0.000000335818
     Trial step:       0.006681354070
             Q1:     -16.777044440211
 Quadratic coef:       0.000000000000
 Linear coef   :      -0.000000000000
           Qmin:     -16.777044440211
Quadratic minimum step length (  0.002104688433) accepted
    Initial Ne1:       8.00000000
      Final Ne1:       8.00000000

=================== Penalty functional idempotency correction ==================
 RMS occupancy error at iteration   1:  0.000000 (step -0.5000 Ne1=      8.0000)
            Final RMS occupancy error   :  0.000000 (Ne1=      8.0000)
               Final occupancy bounds   : [  0.0000,  1.0000]
================================================================================

 8    -16.77704444021133 0.00000000000 0.00000025186 0.0021  0.961    8.00000000
      ideal mu1:      -0.511838006518
             Q0:     -16.777044440211
             G0:      -0.000000000012
   RMS gradient:       0.000000332220
     Trial step:       0.003749955816
             Q1:     -16.777044440211
 Quadratic coef:      -0.000000000000
 Linear coef   :      -0.000000000000
         Quadratic fit unsuccessful: proceeding to cubic fit
             Q2:     -16.777044440211
  Cubic LS coeff:       0.008961664488
Predicted energy:     -16.777044440211
Cubic minimum step length accepted
    Initial Ne1:       8.00000000
      Final Ne1:       8.00000000

=================== Penalty functional idempotency correction ==================
 RMS occupancy error at iteration   1:  0.000000 (step -0.5000 Ne1=      8.0000)
            Final RMS occupancy error   :  0.000000 (Ne1=      8.0000)
               Final occupancy bounds   : [  0.0000,  1.0000]
================================================================================

 9    -16.77704444021108 0.00000000000 0.00000024916 0.0090  0.979    8.00000000
      ideal mu1:      -0.511838031868
10    -16.77704444021110 0.00000000000 0.00000023219 0.0000  0.000    8.00000000
Finished density kernel iterations (  10)

Writing density kernel to file "water.dkn" ... done

           ........................................................
           | *** NGWF optimisation converged ***                  |
           | RMS NGWF gradient =    0.00000154636960              |
           | Maximum change in energy =  0.00000000020957 / atom  |
           | Criteria satisfied:                                  |
           | -> RMS NGWF gradient lower than set threshold.       |
           | -> Energy change per atom lower than set threshold.  |
           ========================================================

================================================================================
           ---------------- ENERGY COMPONENTS (Eh) ----------------
           | Kinetic                    :       10.88273777033785 |
           | Pseudopotential (local)    :      -46.11472916987928 |
           | Pseudopotential (non-local):       -3.19245056594300 |
           | Hartree                    :       19.84275084253131 |
           | Exchange-correlation       :       -4.13120256522881 |
           | Ewald                      :        5.93584924797084 |
           | Total                      :      -16.77704444021109 |
           --------------------------------------------------------
           ------ LOCAL ENERGY COMPONENTS FROM MATRIX TRACES ------
           | Pseudopotential (local)    :      -46.11472916987961 |
           | Hartree                    :       19.84275084253148 |
           --------------------------------------------------------
           Integrated density           :        7.99999999999643
           Integrated density tr(KS)    :        8.00000000000000
================================================================================


                    <<<<< CALCULATION SUMMARY >>>>>
|ITER|    RMS GRADIENT   |     TOTAL ENERGY    |   step   |     Epredicted      
   1     0.01078033059859    -16.46991321199869   0.244869    -16.72180572730415
   2     0.00300151743611    -16.72809775080519   0.404176    -16.76113783816096
   3     0.00160563147378    -16.76293233549538   0.398594    -16.77252465425625
   4     0.00092359315227    -16.77298866190183   0.394882    -16.77611700228589
   5     0.00048233186171    -16.77617446272665   0.304012    -16.77680049799257
   6     0.00026990898489    -16.77680092528939   0.330911    -16.77701443055711
   7     0.00011479082995    -16.77701409581549   0.237204    -16.77704171108585
   8     0.00004032373439    -16.77704192300600   0.160051    -16.77704422655363
   9     0.00002354546551    -16.77704434818845   0.018815    -16.77704443561191
  10     0.00000582427482    -16.77704443955241   0.001928    -16.77704444015594
  11     0.00000268800074    -16.77704444018110   0.000465    -16.77704444021082
  12     0.00000154636960    -16.77704444021110  <-- CG                         
 
===================== Density of States (DOS) calculation ======================
Writing "water_DOS.txt" ...  done
================================================================================
 
Writing bands to file "water.val_bands" ... done

=================== Orbital energy and occupancy information ===================

      Total number of orbitals:       6
   Number of occupied orbitals:       4
                 Occupancy sum:       4.000000000
                 HOMO-LUMO gap:       0.302121813 Eh
                 Mid-gap level:      -0.105716619 Eh

                        Orbital | Energy (Eh) | Occupancy
                            1    -0.965802154   1.0000000
                            2    -0.468910674   1.0000000
                            3    -0.355861773   1.0000000
                            4    -0.256777526   1.0000000
                        .......   --- gap ---   .........
                            5     0.045344288   0.0000000
                            6     0.143912881   0.0000000

================================================================================

********************* Unconstrained **********************
********************* Ewald forces  **********************
*                                                        *
* Element  Atom         Cartesian components (Eh/a)      *
* ------------------------------------------------------ *
*                       x            y            z      *
*                                                        *
*    O       1     -2.30074936   0.13293069   0.13450602 *
*    H       2      1.16935963  -0.93070254   1.14015809 *
*    H       3      1.13138973   0.79777185  -1.27466411 *
*                                                        *
**********************************************************
TOTAL:             -0.00000000   0.00000000  -0.00000000
 
********************* Unconstrained **********************
***************** Local potential forces *****************
*                                                        *
* Element  Atom         Cartesian components (Eh/a)      *
* ------------------------------------------------------ *
*                       x            y            z      *
*                                                        *
*    O       1      1.49605426  -0.08652972  -0.08347398 *
*    H       2     -1.16881553   0.92202846  -1.13156258 *
*    H       3     -1.12864476  -0.78710442   1.26739120 *
*                                                        *
**********************************************************
TOTAL:             -0.80140603   0.04839433   0.05235465
********************* Unconstrained **********************
*************** Non-local potential forces ***************
*                                                        *
* Element  Atom         Cartesian components (Eh/a)      *
* ------------------------------------------------------ *
*                       x            y            z      *
*                                                        *
*    O       1      0.77515105  -0.04378280  -0.02418282 *
*    H       2      0.00000000   0.00000000   0.00000000 *
*    H       3      0.00000000   0.00000000   0.00000000 *
*                                                        *
**********************************************************
TOTAL:              0.77515105  -0.04378280  -0.02418282
 
********************* Unconstrained **********************
************ NGWF non self-consistent forces *************
*                                                        *
* Element  Atom         Cartesian components (Eh/a)      *
* ------------------------------------------------------ *
*                       x            y            z      *
*                                                        *
*    O       1      0.00329479  -0.00035893  -0.00205956 *
*    H       2     -0.00006711   0.00038809  -0.00047078 *
*    H       3     -0.00002028  -0.00040381   0.00033644 *
*                                                        *
**********************************************************
TOTAL:              0.00320741  -0.00037466  -0.00219390
 
********************* Unconstrained **********************
****** Correction to ensure the total force is zero ******
*                                                        *
* Element  Atom         Cartesian components (Eh/a)      *
* ------------------------------------------------------ *
*                       x            y            z      *
*                                                        *
*    O       1     -0.00768252   0.00141229   0.00865931 *
*    H       2     -0.00768252   0.00141229   0.00865931 *
*    H       3     -0.00768252   0.00141229   0.00865931 *
*                                                        *
**********************************************************
TOTAL:             -0.02304757   0.00423687   0.02597792

********************* Unconstrained **********************
************************* Forces *************************
*                                                        *
* Element  Atom         Cartesian components (Eh/a)      *
* ------------------------------------------------------ *
*                       x            y            z      *
*                                                        *
*    O       1     -0.01856673   0.00084695   0.01613035 *
*    H       2      0.00815951  -0.00969827  -0.00053457 *
*    H       3      0.01040722   0.00885132  -0.01559578 *
*                                                        *
**********************************************************
* TOTAL:            0.00000000   0.00000000  -0.00000000 *
**********************************************************

------------------------------ TIMING INFORMATION ------------------------------
AVERAGE TIME:    1345.172s on      3 node(s)                                    
TOTAL TIME:      1345.172s on      3 node(s)                                    
================== AVERAGE TIMINGS FROM ALL NODES (CUMULATIVE) =================
|| TAG                                    #calls    cpu time   %total  Gflops ||
|| ewald_calculate_forces_realspace     :     1        0.00s   0.000%  ------ ||
|| work_imbalance                       :     1        0.00s   0.000%  ------ ||
|| ewald_calculate_forces_recipspace    :     1        0.00s   0.000%  ------ ||
|| dense_eigensolve                     :     1        0.00s   0.000%  ------ ||
|| ewald_calculate_forces               :     1        0.00s   0.000%  ------ ||
|| ewald_calculate_energy               :     1        0.00s   0.000%  ------ ||
|| basis_extract_function_from_box      :    48        0.00s   0.000%  ------ ||
|| sparse_init                          :     1        0.00s   0.000%  ------ ||
|| pseudopotentials_nonlocal_mat        :    25        0.00s   0.000%  ------ ||
|| restart_kernel_write                 :    14        0.00s   0.000%  ------ ||
|| palser_mano_kernel_optimise          :     1        0.00s   0.000%  ------ ||
|| eigenstates_calculate                :     1        0.01s   0.000%  ------ ||
|| integrals_brappd_ketppd              :    25        0.01s   0.000%  ------ ||
|| restart_ngwfs_tightbox_output        :    11        0.01s   0.001%  ------ ||
|| sparse_hotelling_invert              :    25        0.01s   0.001%  ------ ||
|| ngwf_gradient_coeffs                 :    12        0.01s   0.001%  ------ ||
|| basis_dot_function_with_box          :  1927        0.04s   0.003%  ------ ||
|| lnv_gradient_norm                    :   120        0.08s   0.006%  ------ ||
|| basis_add_function_to_box            :  3828        0.08s   0.006%  ------ ||
|| integrals_grad                       :     1        0.08s   0.006%  ------ ||
|| nonsc_forces_ngwfs_calc              :     1        0.08s   0.006%  ------ ||
|| kernel_fix                           :   120        0.09s   0.006%  ------ ||
|| kernel_purify                        :   391        0.10s   0.008%  ------ ||
|| sparse_trace                         :  3341        0.18s   0.013%  ------ ||
|| projectors_func_grad_ovlp_box        :     3        0.18s   0.014%  ------ ||
|| pseudo_nl_calculate_forces           :     1        0.19s   0.014%  ------ ||
|| pseudo_make_structure_factor         :     1        0.19s   0.014%  ------ ||
|| sparse_product                       :  4234        0.19s   0.014%  ------ ||
|| density_initial_guess_real           :     1        0.22s   0.016%  ------ ||
|| basis_copy_function_to_box           :   878        0.48s   0.036%  ------ ||
|| density_batch_row_sums               :   271        0.54s   0.040%  ------ ||
|| fourier_apply_box_pair               :    82        0.58s   0.043%   9.555 ||
|| pseudopotentials_local_on_grid       :     1        0.71s   0.052%  ------ ||
|| integrals_kinetic                    :    25        0.83s   0.062%  ------ ||
|| pseudo_local_calculate_forces        :     1        0.93s   0.069%  ------ ||
|| projectors_func_ovlp_box             :    25        1.31s   0.097%  ------ ||
|| projectors_init_fftbox_recip         :    40        1.34s   0.100%  ------ ||
|| projectors_gradient_batch            :    12        1.41s   0.104%  ------ ||
|| forces_calculate                     :     1        1.46s   0.109%  ------ ||
|| integrals_locpot_mat_els_batch       :   131        4.07s   0.303%  ------ ||
|| properties_calculate                 :     1        4.94s   0.367%  ------ ||
|| ngwf_gradient_batch                  :    12        8.73s   0.649%  ------ ||
|| ngwf_gradient_lnv                    :    12        9.51s   0.707%  ------ ||
|| cell_grid_extract_box                :   596       11.06s   0.822%  ------ ||
|| hamiltonian_energy_components        :     3       16.92s   1.258%  ------ ||
|| cell_grid_deposit_box                :  1085       33.80s   2.513%  ------ ||
|| density_fftbox_deposit_to_cell       :  1084       33.81s   2.513%  ------ ||
|| penalty_denskernel_optimise_cg       :     1       34.07s   2.533%  ------ ||
|| density_fftbox_interpolate_multiply  :  1084       36.38s   2.704%  ------ ||
|| fourier_apply_box                    :  2024       36.72s   2.730%  18.052 ||
|| potential_apply_to_ngwf_batch        :   131       38.89s   2.891%  ------ ||
|| integrals_locpot_dbl_grid            :   131       43.03s   3.199%  ------ ||
|| density_batch_interp_deposit         :   271       74.28s   5.522%  ------ ||
|| density_on_dbl_grid                  :   271       83.91s   6.238%  ------ ||
|| hartree_on_grid                      :   271      203.94s  15.161%  ------ ||
|| fourier_apply_cell_backward          :  1356      464.76s  34.550%   3.255 ||
|| fourier_apply_cell_forward           :  1356      506.70s  37.668%   2.986 ||
|| xc_energy_potential                  :   271      944.16s  70.189%  ------ ||
|| lnv_denskernel_optimise_cg           :    12     1207.84s  89.791%  ------ ||
|| ngwf_cg_optimise                     :     1     1298.65s  96.542%  ------ ||
|| total_time                           :     1     1345.17s 100.000%  ------ ||
================================================================================
Overhead of generating timer report: 
- 0 ms averaging over threads,
- 0 ms ensuring consistency across MPI ranks,
- 0 ms printing in order.

Job completed: 09-03-2015 21:38 (-0000)

