 +---------------------------------------------------------------+
 |                                                               |
 |        ####### #     # ####### ####### ####### ######         |
 |        #     # ##    # #          #    #       #     #        |
 |        #     # # #   # #          #    #       #     #        |
 |        #     # #  #  # #####      #    #####   ######         |
 |        #     # #   # # #          #    #       #              |
 |        #     # #    ## #          #    #       #              |
 |        ####### #     # #######    #    ####### #              |
 |                                                               |
 |        Linear-Scaling Ab Initio Total Energy Program          |
 |                                                               |
 |          Release for academic collaborators of ODG            |
 |                                             Version 3.5.9.8   |
 |                                                               |
 +---------------------------------------------------------------+
 |                                                               |
 |  Authors:                                                     |
 |  Jacek Dziedzic, Peter D. Haynes, Nicholas D. M. Hine,        |
 |  Arash. A. Mostofi, Mike C. Payne and Chris-Kriton Skylaris   |
 |                                                               |
 |  Contributors:                                                |
 |  J. Aarons, L. Andrinopoulos, P. W. Avraam, R. A. Bell,       |
 |  S. J. Clark, G. C. Constantinescu, F. Corsetti, N. Corsini,  |
 |  O. Dieguez, S. M. M. Dubois,  H. H. Helal,                   |
 |  Q. O. Hill, L. P. Lee, J.-H. Li, D. D. O`Regan,              |
 |  M. J. S. Phipps, C. J. Pickard, M. I. J. Probert,            |
 |  L. Ratcliff, M. Robinson, A. Ruiz Serrano, J. S. Spencer,    |
 |  G. Teobaldi, V. Vitale, K. A. Wilkinson and                  |
 |  T. J. Zuehlsdorff                                            |
 |                                                               |
 |                                   Copyright (c) 2004-2014     |
 |                                                               |
 |  Please cite:                                                 |
 |  "Introducing ONETEP: Linear-scaling density functional       |
 |   simulations on parallel computers".                         |
 |   C.-K. Skylaris, P. D. Haynes, A. A. Mostofi, M. C. Payne.   |
 |   J. Chem. Phys. 122 084119 (2005).                           |
 |                                                               |
 |          in all publications arising from your use of ONETEP. |
 |                                                               |
 +---------------------------------------------------------------+
 |                                                               |
 |   ONETEP is based on developments described in the following  |
 |   publications:                                               |
 |                                                               |
 |  "Nonorthogonal generalized Wannier function pseudopotential  |
 |   plane-wave method".                                         |
 |   C.-K. Skylaris, A. A. Mostofi, P. D. Haynes, O. Dieguez,    |
 |   M. C. Payne.                                                |
 |   Phys. Rev. B 66 035119 (2002).                              |
 |                                                               |
 |  "Preconditioned iterative minimization for linear-scaling    |
 |   electronic structure calculations".                         |
 |   A. A. Mostofi, P. D. Haynes, C.-K. Skylaris, M. C. Payne.   |
 |   J. Chem. Phys. 119(17), pp.8842-8848 (2003).                |
 |                                                               |
 |  "Total-energy calculations on a real space grid with         |
 |   localized functions and a plane-wave basis".                |
 |   A. A. Mostofi, C.-K. Skylaris, P. D. Haynes, M. C. Payne.   |
 |   Comput. Phys. Commun. 147, pp.788-802 (2002).               |
 |                                                               |
 |  "Accurate kinetic energy evaluation in electronic structure  |
 |   calculations with localized functions on real space grids"  |
 |   C.-K. Skylaris, A. A. Mostofi, P. D. Haynes, C. J. Pickard, |
 |   M. C. Payne.                                                |
 |   Comput. Phys. Commun. 140, pp.315-322 (2001).               |
 |                                                               |
 |  "Accurate ionic forces and geometry optimization in linear-  |
 |   scaling density-functional theory with local orbitals"      |
 |   N. D. M. Hine, M. Robinson, P. D. Haynes, C.-K. Skylaris,   |
 |   M. C. Payne, and A. A. Mostofi.                             |
 |   Phys. Rev. B 83 195102 (2011).                              |
 |                                                               |
 +---------------------------------------------------------------+

Job started: 09-03-2015 22:19 (-0000)
 
If your calculation crashes here, before "Reading parameters..."
is displayed, then your stack size is insufficient.
If so, use "ulimit -s unlimited" at runtime.

Reading parameters from file "water.dat" ...... done
Running on 1 processor.
There are   1 MPI processes running on the same node as the root process.
Each MPI process is using: 
             1 threads for simulation cell FFTs.
             1 threads for parallel FFT box operations.
             1 threads for loops over batched FFT box operations.
             1 threads in other parallel regions.
 
Reading geometry and species blocks from file "water.dat" ...    
  Number of PPD points along a3 set to 1 from input file.
... done
-------------------------------------------------------------------------------
---------------------------- RUN-TIME PARAMETERS ------------------------------
-------------------------------------------------------------------------------
task                         : SINGLEPOINT *! Type of calculation (String)      
cutoffenergy                 : 14.6995976898129      hartree *! Plane wave kine 
kernelcutoff                 : 1000.00000000000      bohr *! Density kernel rad 
xcfunctional                 : PBE *! Exchange-correlation functional (String)  
libxcxfuncid                 : 0 *! Functional identifier for which exchange fu 
libxccfuncid                 : 0 *! Functional identifier for which correlation 
charge                       : 0.000000000000000E+000 *! The total charge of th 
spin                         : 0 *! Total spin of system (Integer)              
spinpolarized                : F *! Switch for spin polarisation (Boolean)      
spinpolarised                : F *! Switch for spin polarisation (Boolean)      
constantefield               : 0.0000000000     0.0000000000     0.0000000000 * 
fftboxpref                   : 0 0 0 *! Preferred FFT box dimensions (String)   
ppdnpoints                   : 0 0 1 *! PPD edge length in grid points for each 
psincspacing                 : 0.0 0.0 0.0 *! PSINC grid spacing in atomic unit 
oldinput                     : F *! Read old-format input file (Boolean)        
develcode                    : *! For development code only (String)            
positionsxyzfile             : *! .xyz file to read positional data from (Strin 
positionsintermediatexyzfile : *! .xyz file to read positional data for interme 
positionsproductxyzfile      : *! .xyz file to read positional data for product 
nnho                         : F *! Initialise NGWFs to nonorthogonal natural h 
ngwfhalo                     : -1.00000000000000      bohr *! Halo extension to 
nonscforces                  : T *! Include non self-consistent forces due to N 
externalpressure             : 0.000000000000000E+000 ha/bohr**3 *! External ap 
smoothingfactor              : 5.00000000000000 *! Smoothing factor in volume t 
isosurfacecutoff             : 5.000000000000000E-004 *! Isosurface cutoff in v 
maxitpalsermano              : 50 *! Maximum number of iterations for Palser-Ma 
maxitkernelocccheck          : 0 *! Maximum number of kernel resets after occup 
maxitpen                     : 3 *! Max number of penalty functional iterations 
penparam                     : 4.00000000000000 *! Penalty functional parameter 
minitlnv                     : 10 *! Min number of LNV iterations (Integer)     
maxitlnv                     : 10 *! Max number of LNV iterations (Integer)     
lnvthresholdorig             : 1.000000000000000E-009 *! LNV convergence thresh 
lnvcgtype                    : LNV_FLETCHER *! Type of CG coefficient for LNV d 
lnvcgmaxstep                 : 3.00000000000000 *! Maximum length of trial step 
exactlnv                     : T *! Use original LNV algorithm (Boolean)        
oldlnv                       : F *! Use LNV algorithm backwards compatible pre  
lnvchecktrialsteps           : T *! Check stability of kernel at each trial ste 
kerfix                       : 1 *! Density kernel fixing approach (Integer)    
maxitkernelfix               : 3 *! Maximum # iterations of Penalty Functional  
initialdensrealspace         : T *! Construct initial density in real space fro 
kerneldiissize               : 10 *! Max number of kernels saved during kernel  
kerneldiismaxit              : 25 *! Max number of kernel DIIS iterations (Inte 
kerneldiisthreshold          : 1.000000000000000E-009 *! Density mixing converg 
kerneldiislineariter         : 5 *! Number of linear mixing iterations (Integer 
kerneldiiscoeff              : 0.100000000000000 *! Coefficient for the input k 
kerneldiisconvcriteria       : 1000 *! Density mixing convergence criteria (Str 
kerneldiislshift             : 1.00000000000000      hartree *! The initial val 
kerneldiislsiter             : 0 *! Maximum Level shifting iteration (Integer)  
kerneldiisscheme             : NONE *! Select scheme for kernel-diis (String)   
edft                         : F *! Use Ensemble-DFT method to optimise the ker 
edftmaxit                    : 10 *! Maximum number of EDFT iterations to optim 
edftmaxstep                  : 1.00000000000000 *! Maximum step during EDFT lin 
edftsmearingwidth            : 3.166811429000000E-003 hartree *! Occupancy smea 
edftfreeenergythres          : 1.000000000000000E-006 hartree *! Convergence th 
edftenergythres              : 1.000000000000000E-004 hartree *! Convergence th 
edftentropythres             : 1.000000000000000E-004 hartree *! Convergence th 
edftrmsgradientthres         : 1.000000000000000E-004 *! Convergence threshold  
edftcommutatorthres          : 1.000000000000000E-005 hartree *! Convergence th 
edftfermithres               : 1.000000000000000E-003 hartree *! Convergence th 
edftwriteocc                 : F *! Generate file with smeared occupancies (Boo 
edftextrabands               : -1 *! Number of additional MOs with non-zero occ 
eigensolverorfac             : 1.000000000000000E-004 *! Precision to which the 
eigensolverabstol            : 1.000000000000000E-009 *! Precision to which the 
writehamiltonian             : F *! Save current Hamiltonian matrix in a file ( 
readhamiltonian              : F *! Read current Hamiltonian matrix from a file 
ngwfcgrotate                 : F *! Rotate density kernel during NGWF optimizat 
edftroundevals               : -1 *! Round EDFT eigenvalues to N decimal figure 
maxitngwfcg                  : 100 *! Max number of NGWF conjugate gradients (C 
ngwfcgtype                   : NGWF_FLETCHER *! Type of CG coefficient for NGWF 
ngwfcgmaxstep                : -8.00000000000000 *! Maximum length of trial ste 
eleccgmax                    : 3 *! Number of NGWF iterations to reset CG (Inte 
precondscheme                : TETER *! Recip-space preconditioning scheme (Str 
kzero                        : 3.00000000000000      1/bohr *! KE preconditioni 
rprecond                     : 2.00000000000000      bohr *! Radial cut-off for 
precondrecip                 : T *! Recip-space KE preconditioning (Boolean)    
precondreal                  : F *! Real-space KE preconditioning (Boolean)     
smoothscheme                 : NONE *! Smoothing scheme for the NGWF gradients  
rsmooth                      : 1.50000000000000      bohr *! Radius of the unsh 
ksmooth                      : 5.00000000000000      1/bohr *! Characteristic w 
occmix                       : 0.250000000000000 *! Mix fraction of occupancy p 
kernelupdate                 : F *! Update density kernel during NGWF line sear 
kernelchristoffelupdate      : F *! Update density kernel during NGWF line sear 
maxithotelling               : 100 *! Number of Hotelling iteration per NGWF ch 
maxresidhotelling            : 1.000000000000000E-012 *! Max allowed value in H 
rmskernelmeasure             : F *! Use root mean squared measure of [K,H] comm 
maxitngwfdiis                : 0 *! Max number of NGWF DIIS steps (Integer)     
ngwfdiissize                 : 4 *! Max size of the DIIS iterative subspace (In 
ngwfdiisreset                : 8 *! Max number of iteration for the resetting o 
ngwfdiismaxstep              : 2.00000000000000 *! Max length of trial step for 
ngwfthresholdorig            : 1.837500000000000E-006 *! NGWF convergence thres 
elecenergytol                : 3.674899422453221E-005 hartree *! Tolerance on t 
elecforcetol                 : -1.000000000000000E-003 ha/bohr *! Tolerance on  
ngwfmaxgrad                  : -2.000000000000000E-005 *! Maximum permissible v 
deltaeconv                   : T *! Use consecutive energy gains as a criterion 
kernelforceconv              : F *! Force density kernel convergence on last NG 
fftboxbatchsize              : 16 *! Number of NGWFs in fftbox batches (Integer 
densethreshold               : 0.400000000000000 *! Threshold for matrix segmen 
commsgroupsize               : -1 *! Number of nodes in a group (determines com 
ovlpfornonlocal              : F *! Overlap sparsity for nonlocal (Boolean)     
usespacefillingcurve         : T *! Re-arrange atoms according to space-filling 
corehamdenskernguess         : T *! Initial guess for density kernel from core  
checkatoms                   : T *! Check atoms on top of each other (Boolean)  
locpotscheme                 : FULL *! Scheme for evaluating local potential ma 
smoothprojectors             : -0.400000000000000 *! Halfwidth of Gaussian filt 
smoothlocpspot               : -0.400000000000000 *! Halfwidth of Gaussian filt 
oddpsincgrid                 : F *! Force odd number of points in simcell psinc 
evenpsincgrid                : F *! Force even number of points in simcell psin 
realspaceprojectors          : F *! Whether to evaluate and store projectors in 
projectorsprecalculate       : T *! Whether to pre-calculate the nonlocal proje 
outputdetail                 : VERBOSE *! Level of output detail (String)       
pawoutputdetail              : DEFAULT *! Level of output detail for PAW: BRIEF 
mdoutputdetail               : DEFAULT *! Level of output detail for MD: BRIEF, 
timingslevel                 : 1 *! Level of timings output: 0(none) 1(nodes su 
timingsorder                 : TIME *! Sorting order of timings (String)        
runtime                      : -1.00000000000000 *! The maximum allocated run t 
writeparams                  : T *! Output runtime parameters at startup (Boole 
esdfdump                     : T *! Dump all runtime parameters at startup (Boo 
writeforces                  : T *! Write ionic forces (Boolean)                
writepositions               : T *! Write ionic positions each geometry or MD s 
writevelocities              : F *! Write ionic velocities each MD step (Boolea 
writexyz                     : F *! Output coordinates in .xyz file (Boolean)   
printqc                      : F *! Print Quality Control information (Boolean) 
cubeformat                   : T *! Allow .cube format for plot outputs (Boolea 
dxformat                     : F *! Allow .dx format for plot outputs (Boolean) 
dxformatcoarse               : F *! Output only points on the coarse grid (Bool 
dxformatdigits               : 7 *! Number of significant digits in .dx output  
grdformat                    : F *! Allow .grd format for plot outputs (Boolean 
writedensityplot             : F *! Write the charge density in plotting format 
writepolarisationplot        : F *! Write the polarisation density in plotting  
writengwfplot                : F *! Write NGWFs in plotting format (Boolean)    
writengwfgradplot            : F *! Write NGWF Gradients in plotting format (Bo 
writengwfradial              : 0 *! Write NGWFs radial distributions (Integer)  
writengwfgradradial          : 0 *! Write NGWFs gradients radial distributions  
writeradialstep              : 5.000000000000000E-003 bohr *! Define the grid s 
writeradialsmear             : 1.000000000000000E-002 bohr *! Define the gaussi 
writeinitialradialngwfs      : F *! Controls output of radial NGWF plots from a 
readdenskern                 : F *! Read density kernel restart information (Bo 
writedenskern                : T *! Write density kernel restart information (B 
readtightboxngwfs            : F *! Read in universal tightbox NGWFs restart in 
writetightboxngwfs           : T *! Write in universal tightbox NGWFs restart i 
writeconvergeddkngwfs        : F *! Only write Density Kernel and NGWFs upon co 
readswngwfs                  : F *! Read NGWFs restart information in spherical 
writeswngwfs                 : F *! Write NGWFs restart information in spherica 
writemaxl                    : 3 *! Maximum angular momentum number when writin 
readmaxl                     : 3 *! Maximum angular momentum number when readin 
extransw                     : 0 *! Maximum number of zeros of the sph Bessel f 
paw                          : F *! Uses a PAW construction to find correct cor 
finegridscale                : 2.00000000000000 *! Ratio of size of fine grid t 
dblgridscale                 : 2.00000000000000 *! Ratio of charge density / po 
augfuncsrecip                : T *! Construct Augmentation functions in recip s 
pseudopath                   : *! Path to pseudopotentials (String)             
dispersion                   : 0 *! Select dispersion correction (String)       
vdwdcoeff                    : -1.00000000000000 *! Replacement VDW damping coe 
hubbardmaxiter               : 10 *! Maximum number of DFT+U projector optimisa 
hubbardenergytol             : 1.000000000000000E-008 hartree *! Energy toleran 
hubbardconvwin               : 2 *! Energy convergence window when using DFT+U  
hubbardprojmixing            : 0.000000000000000E+000 *! Proportion of old Hubb 
hubbardfunctional            : 1 *! DFT+U energy functional to use (Integer)    
hubbardtensorcorr            : 1 *! DFT+U projector tensorial correction to use 
hubbardngwfspinthreshold     : 2.000000000000000E-005 *! NGWF RMS  gradient thr 
hubbardscfonthefly           : F *! Carry out on-the-fly HUBBARDSCF with new pr 
hubbardreadprojectors        : F *! Logical to read Hubbard-projectors from fil 
cdftatomcharge               : F *! Perform an ATOM-CHARGE-constrained CDFT sim 
cdftatomspin                 : F *! Perform an ATOM-SPIN-constrained CDFT simul 
cdftgroupchargediff          : F *! Perform a GROUP-CHARGE-DIFFERENCE-constrain 
cdftgroupspindiff            : F *! Perform a GROUP-SPIN-DIFFERENCE-constrained 
cdftgroupchargeacceptor      : F *! Perform an ACCEPTOR GROUP-CHARGE-constraine 
cdftgroupchargedonor         : F *! Perform a DONOR GROUP-CHARGE-constrained CD 
cdftgroupspinacceptor        : F *! Perform an ACCEPTOR GROUP-SPIN-constrained  
cdftgroupspindonor           : F *! Perform a DONOR GROUP-SPIN-constrained CDFT 
cdfthubbard                  : F *! Perform a constrained-DFT+U simulation (Boo 
cicdft                       : F *! Perform a CONFIGURATION-INTERACTION CDFT si 
cdftprintallocc              : F *! Logical to have the occupancy-matrix of all 
cdftreadprojectors           : F *! Logical to read cDFT-projectors from file ( 
cdftgroupchargeuponly        : F *! Logical to constrain only UP electrons (Boo 
cdftgroupchargedownonly      : F *! Logical to constrain only UP electrons (Boo 
cdftmultiproj                : F *! Logical to use mutiple angular-momentum pro 
cicdftnumconf                : 0 *! Number of cDFT-configurations for CI_CDFT s 
cdftgroupchargedifftarget    : 0.000000000000000E+000 *! Targeted CHARGE differ 
cdftgroupspindifftarget      : 0.000000000000000E+000 *! Targeted SPIN differen 
cdftchargeacceptortarget     : 0.000000000000000E+000 *! Targeted group-CHARGE  
cdftchargedonortarget        : 0.000000000000000E+000 *! Targeted group-CHARGE  
cdftspinacceptortarget       : 0.000000000000000E+000 *! Targeted group-SPIN fo 
cdftspindonortarget          : 0.000000000000000E+000 *! Targeted group-SPIN fo 
maxitcdftucg                 : 60 *! Max number of cdFT-U conjugate gradients ( 
cdftcgtype                   : NGWF_FLETCHER *! Type of CG coefficient for CDFT 
cdftcgthreshold              : 1.000000000000000E-003 *! RMS gradient convergen 
cdfttriallength              : 0.100000000000000 *! Trial length for cDFT line- 
cdftcgmax                    : 5 *! Number of U-opt iterations to reset CG (Int 
cdftmaxgrad                  : 1.000000000000000E-003 *! Maximum permissible va 
cdftelecenergytol            : -1.000000000000000E-004 hartree *! Tolerance on  
cdftcgmaxstep                : 50.0000000000000 *! Maximum length of trial step 
cdftguru                     : F *! Let the user signal she/he does not need he 
cdftcontinuation             : F *! Logical to restart (from the *.cdft file) a 
cdfttight                    : F *! Logical to activate tight NGWFs-cDFT optimi 
cdftwritepotentials          : T *! Logical to write cDFT-potentials into file  
coulombcutoffradius          : 0.000000000000000E+000 bohr *! Radius of sphere  
coulombcutofflength          : 0.000000000000000E+000 bohr *! Length of cylinde 
coulombcutofftype            : NONE *! Type of cutoff coulomb interaction: NONE 
coulombcutoffwriteint        : F *! Write real-space cutoff Coulomb interaction 
pbccorrectioncutoff          : 0.000000000000000E+000 bohr *! alpha*L cutoff pa 
doproperties                 : T *! Allow calculation of properties (Boolean)   
numeigenvalues               : 6 *! Number of energy and occupancy eigenvalues  
homodensplot                 : -1 *! Number of squared MOs to plot from HOMO an 
lumodensplot                 : -1 *! Number of squared MOs to plot from LUMO an 
homoplot                     : -1 *! Number of MOs to plot from HOMO and lower  
lumoplot                     : -1 *! Number of MOs to plot from LUMO and higher 
dossmear                     : 3.674899422453221E-003 hartree *! Half width of  
ldossmear                    : 3.674932438755288E-003 hartree *! Lorentzian bro 
popncalculate                : F *! Allow population analysis (Boolean)         
popnbondcutoff               : 5.66917840375065      bohr *! Bond length cutoff 
ngwfanalysis                 : F *! Perform NGWF analysis (Boolean)             
polarisationcalculate        : F *! Allow calculation of polarisation (Boolean) 
spreadcalculate              : F *! Calculate spread of NGWFs (Boolean)         
anharmoniccalculate          : F *! Active the calculation of the IR spectrum ( 
geommodulusest               : 1.700000000000000E-002 ha/bohr**3 *! The estimat 
geomfrequencyest             : 7.600000000000000E-003 hartree *! The estimated  
geomenergytol                : 3.674899422453221E-007 hartree *! Geometry optim 
geomforcetol                 : 5.834023153688738E-004 ha/bohr *! Geometry optim 
geomdisptol                  : 1.889726877774356E-003 bohr *! Geometry optimiza 
geommaxiter                  : 100 *! Maximum number of geometry optimization i 
geomconvergencewin           : 2 *! Geometry optimization convergence tolerance 
geomcontinuation             : F *! Read information for continuation of a prev 
geombackupiter               : 1 *! Number of geometry optimisation iterations  
geomresetdkngwfsiter         : 6 *! Number of geom iterations between resets of 
geomlbfgsmaxupdates          : 30 *! Number of LBFGS update vectors to store (I 
geomlbfgsblocklength         : 30 *! How many updates to store before reallocat 
geomreusedkngwfs             : T *! Re-use density kernel and NGWFs during geom 
geomprintinvhessian          : F *! Write inverse Hessian to standard output (B 
geommethod                   : CARTESIAN *! Method for geometry optimization (S 
geomlbfgs                    : F *! Whether to perform LBFGS rather than BFGS i 
tssearchmethod               : LSTQST *! Specifies method to be used for TS sea 
tssearchlstqstprotocol       : LSTMAXIMUM *! Specifies LSTQST protocol (String) 
tssearchqstmaxiter           : 5 *! Specifies maximum number of QST steps (Inte 
tssearchcgmaxiter            : 20 *! Specifies maximum number of CG steps (Inte 
tssearchforcetol             : 5.000000000000000E-003 ha/bohr *! Force toleranc 
tssearchdisptol              : 1.000000000000000E-002 bohr *! Displacement tole 
mdproperties                 : F *! Compute vibrational and IR spectra from MD  
mdrestart                    : F *! Restart MD from backup files (Boolean)      
mddeltat                     : 40.0000000000000      aut *! Molecular dynamics  
mdnumiter                    : 100 *! Maximum number of molecular dynamics iter 
mdresethistory               : 100 *! Reset mixing scheme for initial guess of  
mtsxi                        : F *! Internal thermostat in the multiple time-st 
mtsnstep                     : 1 *! Number of time steps in the multiple time-s 
mtsngwfthreshold             : 5.000000000000000E-004 *! NGWF convergence thres 
mtslnvthreshold              : 5.000000000000000E-006 *! LNV convergence thresh 
mtselecenergytol             : -1.000000000000000E-003 hartree *! Tolerance on  
mtselecforcetol              : -1.000000000000000E-003 ha/bohr *! Tolerance on  
mtsngwfmaxgrad               : -2.000000000000000E-005 *! Maximum permissible v 
mtsmaxitngwfcg               : 50 *! Max number of conjugate gradients iteratio 
mtsminitlnv                  : 5 *! Min number of LNV iterations (Integer)      
mtsmaxitlnv                  : 5 *! Max number of LNV iterations (Integer)      
mtsmaxitpen                  : 3 *! Max number of penalty iterations (Integer)  
mtsmixinc                    : F *! Include the mts correction step in the NGWF 
mixdkntype                   : NONE *! Type of mixing used to build new guess f 
mixdknnum                    : 0 *! Number of coefficients used to build new gu 
mixdkninittype               : NONE *! Type of initialization before MIX_DKN_TY 
mixdkninitnum                : 0 *! Number of steps before extrapolation of the 
mixdknreset                  : 50 *! Number of extrapolation steps between two  
mixngwfstype                 : NONE *! Type of mixing used to build new guess f 
mixngwfsnum                  : 0 *! Number of coefficients used to build new gu 
mixngwfsinittype             : NONE *! Type of initialization before MIX_DKN_TY 
mixngwfsinitnum              : 0 *! Number of steps before extrapolation of the 
mixngwfsreset                : 50 *! Number of extrapolation steps between two  
mixngwfscoeff                : 0.100000000000000 *! Mix the propagated NGWFs wi 
mixlocallength               : 10.0000000000000      bohr *! Max radius for loc 
mixlocalsmear                : 5.00000000000000      bohr *! Radial smearing fo 
condreaddenskern             : F *! Read in conduction density kernel (Boolean) 
condreadtightboxngwfs        : F *! Read in universal tightbox conduction NGWFs 
condfixedshift               : F *! Fixed projected conduction Hamiltonian shif 
condcalcmaxeigen             : T *! Calculate maximum conduction Hamiltonian ei 
condnumstates                : 0 *! Number of conduction states to be optimised 
condmaxitlnv                 : 10 *! Max number of LNV iterations during conduc 
condminitlnv                 : 10 *! Min number of LNV iterations during conduc 
condkernelcutoff             : 1000.00000000000      bohr *! Conduction density 
condinitshift                : 0.000000000000000E+000 hartree *! Initial shifti 
condshiftbuffer              : 0.100000000000000      hartree *! Additional buf 
condnumextrastates           : 0 *! Number of extra conduction states for initi 
condnumextraits              : 0 *! Number of NGWF iterations with extra conduc 
condplotjointorbitals        : T *! Plot orbitals in the joint basis following  
condplotvcorbitals           : T *! Plot orbitals in the val and cond NGWF basi 
condcalcopticalspectra       : F *! Calculate matrix elements for optical absor 
condspeccalcmommatels        : T *! Calculate momentum matrix elements (default 
condspeccalcnonloccomm       : T *! Calculate nonlocal commutator for momentum  
condspeccontderiv            : T *! Calculate non-local commuator using continu 
condspecnonloccommshift      : 1.000000000000000E-004 *! Finite difference shif 
condspecprintmatels          : F *! Write optical matrix elements to file (Bool 
condspecoptsmear             : 3.674932438755288E-003 hartree *! Half width of  
condspecscissorop            : 0.000000000000000E+000 hartree *! Scissor operat 
condcalceels                 : F *! Calculate matrix elements for electron ener 
lrtddftcalculate             : F *! enables LR-TDDFT calculation (Boolean)      
lrtddftnumstates             : 1 *! Sets the number of excitation energies we w 
lrtddftcgthreshold           : 1.000000000000000E-006 *! sets convergence toler 
lrtddftpenaltytol            : 1.000000000000000E-008 *! sets the convergence t 
lrtddftmaxitpen              : 20 *! sets the maximum number of iterations for  
lrtddftmaxitcg               : 60 *! sets the maximum number of iterations for  
lrtddftresetcg               : 100 *! sets the number of iterations after which 
lrtddftkernelcutoff          : 1000.00000000000      bohr *! sets cutoff on the 
lrtddftwritedensities        : T *!Determines whether to write out TDDFT respon 
lrtddftwritekernels          : F *! writes out response kernels after each iter 
lrtddftrestart               : F *! Restart flag for the LR_TDDFT option (Boole 
lrtddfttriplet               : F *! DEtermines if triplet states are calculated 
lrtddftprojector             : T *! Use projector onto unoccupied subspace (Boo 
lrtddftjointset              : T *! Use joint set to represent cond states (Boo 
lrtddftpreopt                : T *! Refine starting guess in preoptimisation ro 
lrtddftpreoptiter            : 20 *! Number of preoptimisation iterations (Inte 
lrtddftanalysis              : F *! Do a full O(N^3) analysis of TDDFT transiti 
etransbulk                   : F *! Compute electronic transport coefficients ( 
etranslcr                    : F *! Compute electronic transport coefficients ( 
etranssameleads              : F *! Use same description for all leads (Boolean 
etranswritehs                : F *! Write hamiltonian corresponding to transpor 
etransecmplx                 : 1.000000000000000E-006 hartree *! Imaginary part 
etransemax                   : 0.200000000000000      hartree *! Highest energy 
etransemin                   : -0.200000000000000      hartree *! Lowest energy 
etransenum                   : 50 *! Number of energy points for the calculatio 
etranseref                   : 0.000000000000000E+000 hartree *! Reference ener 
etranserefmethod             : DIAG *! The method used to determine the referen 
etranscalculateleadmu        : F *! Calculate the lead chemical potentials (Boo 
etransleadnkpoints           : 32 *! Number of kpoints to use to determine lead 
etransleaddisptol            : 1.00000000000000      bohr *! The maximum accept 
anhqcfactor                  : HARMONIC *! Quantum correction factor in IR spec 
anhacffactor                 : NONE *! Prefactor for the autocorrelation functi 
anhtype                      : IR_CALCULATION *! Describe the type of calculati 
anhfirstiter                 : 0 *! First md iteration to include in the autoco 
anhlastiter                  : 0 *! Last md iteration to include in the autocor 
anhmdtemp                    : 0.000000000000000E+000 kelvin *! Temperature in  
anhplotfirstfreq             : 0.000000000000000E+000 1/cm *! First freq to be  
anhplotlastfreq              : 0.000000000000000E+000 1/cm *! Last freq to be s 
anhplotall                   : F *! Plot the whole IR spectrum (Boolean)        
anhapplyfilter               : F *! Apply the gaussian filter (Boolean)         
phononfarmingtask            : 0 *! Operation to perform for phonon calc (for t 
phononsampling               : 1 *! Default number of sampling points for finit 
phononvibfree                : 7 *! Default allowed vibrational degrees of free 
phononfinitedisp             : 0.100000000000000      bohr *! Amplitude of the  
phononfmax                   : 5.000000000000000E-003 ha/bohr *! Maximum force  
phononenergycheck            : F *! Check total energy of system doesn't decrea 
phonontmin                   : 0.000000000000000E+000 hartree *! Lower bound of 
phonontmax                   : 2.000000000000000E-003 hartree *! Upper bound of 
phonondeltat                 : 1.500000000000000E-005 hartree *! Temperature st 
phononminfreq                : 3.600000000000000E-006 hartree *! Discard phonon 
phononwriteeigenvecs         : F *! Write phonon mode eigenvectors to file (Boo 
phononanimatescale           : 1.00000000000000 *! Scaling factor for phonon mo 
phonondosmin                 : 0.000000000000000E+000 *! Lower bound of frequen 
phonondosmax                 : 1000.00000000000 *! Upper bound of frequency ran 
phonondosdelta               : 10.0000000000000 *! Frequency step (in cm^-1) fo 
phonondos                    : T *! Calculate phonon DOS from MP grid and write 
phononsk                     : F *! Use Slater-Koster style interpolation for q 
bskpointpathspacing          : 0.188972700000000      1/bohr *! K-point spacing 
bsnumeigenvalues             : -1 *! Num of energy and occ. eigenvalues to prin 
bsunfold                     : 0 0 0 *! Number of times to unfold Brillouin zon 
bsmethod                     : TB *! Method to use: 'KP' or 'TB' (String)       
dotddft                      : F *! Allow Time-Dependent DFT calculation (Boole 
tddftmaximumenergy           : 1.00000000000000      hartree *! Desired maximum 
tddftresolution              : 1.000000000000000E-003 hartree *! Desired resolu 
tddftpropagationmethod       : CRANKNICHOLSON *! Method used to integrate von N 
tddftsparsitylevel           : 0 *! Matrix sparsity when computing propagators  
tddfttammdancoff             : F *! Invoke Tamm-Dancoff decoupling approximatio 
tddftdipolekickstrength      : 0.0 0.0 0.0 *! Maximum allowed phase shift in TD 
tddftxcfunctional            : LDA *! Exchange-correlation functional for TDDFT 
tddfthamiltonianmixing       : 0 *! Order of polynomial extrapolation to H(t +  
tddftdamping                 : 0.000000000000000E+000 hartree *! Energy smearin 
tddftenforcedidempotency     : F *! Project out at each timestep that part of c 
tddftmaxithotelling          : 50 *! Number of Hotelling iteration per propagat 
tddftmaxresidhotelling       : 1.000000000000000E-018 *! Max allowed value in H 
tddftinvoverlapexact         : T *! Renew inverse overlap with O N^3 algorithm  
isimplicitsolvent            : F *! Use implicit solvent? (Boolean)             
issmearedionrep              : F *! Implicit solvent: use smeared ions for elec 
isseparaterestartfiles       : F *! If true, dielectric cavity will be construc 
isautosolvation              : F *! If true, vacuum calculation will automatica 
isincludecavitation          : F *! Implicit solvent: include cavitation energy 
isdensitythreshold           : 7.800000000000000E-004 *! Implicit solvent: rho_ 
issolvationbeta              : 1.30000000000000 *! Implicit solvent: beta param 
isbulkpermittivity           : 1.00000000000000 *! Implicit solvent: eps_inf pa 
ismultigriddefecterrortol    : 1.000000000000000E-002 *! Implicit solvent: stop 
ismultigriderrortol          : 1.000000000000000E-005 *! Implicit solvent: stop 
issmearedionwidth            : 0.800000000000000      bohr *! Implicit solvent: 
iscorewidth                  : 1.20000000000000      bohr *! Implicit solvent:  
issurfacethickness           : 2.000000000000000E-004 *! Implicit solvent: thic 
issolventsurfacetension      : 4.762400000000000E-005 ha/bohr**2 *! Implicit so 
ismultigridmaxiters          : 100 *! Implicit solvent: max number of iteration 
ismultigridnlevels           : 4 *! Implicit solvent: number of levels in multi 
isdiscretizationorder        : 8 *! Implicit solvent: discretization order (2nd 
isbccoarseness               : 5 *! Open BCs: controls boundary condition coars 
isbcsurfacecoarseness        : 1 *! Open BCs: controls boundary condition coars 
isbcthreshold                : 1.000000000000000E-009 *! Open BCs: controls bou 
ischecksolvenergygrad        : F *! Implicit solvent: sanity check the energy g 
issolvationmethod            : DIRECT *! Implicit solvent: direct or corrective 
isdielectricmodel            : FIX_INITIAL *! Implicit solvent: how the cavity  
isdielectricfunction         : FGF *! Implicit solvent: how the cavity is deter 
issolvationoutputdetail      : NONE *! Implicit solvent: controls extra output  
openbcionion                 : F *! Force open BCs in ion-ion energy (Boolean)  
openbchartree                : F *! Force open BCs in Hartree potential (Boolea 
openbcpspot                  : F *! Force open BCs in local pseudopotential (Bo 
openbcpspotfinetunenptsx     : 100000 *! Open BCs in local pseudo, npts_x param 
openbcpspotfinetunealpha     : 0.300000000000000 *! Open BCs in local pseudo, a 
openbcpspotfinetunef         : -1 *! Open BCs in local pseudo, fineness paramet 
hfxintegration               : 2 *! Variant of the numerical pointwise approach 
hfxcutoff                    : 1000.00000000000      bohr *! HFx cutoff radius  
hfxnlppforexchange           : F *! Give exchange matrix same sparsity as non-l 
hfxradialsegments            : 50 *! Number of radial segments in vmatrix evalu 
hfxangularsegments           : 50 *! Number of angular segments in vmatrix eval 
hfxcheborder                 : 16 *! Order for Chebyshev interpolation (Integer 
hfxchebintervals             : 14 *! Number of intervals Chebyshev interpolatio 
hfxchebabatchsize            : 10 *! Number of SW expansions buffered (Integer) 
hfxchebbbatchsize            : 10 *! Number of SW pot expansions buffered (Inte 
hfxmaxl                      : 4 *! Maximum quantum number l used for SW expans 
hfxmaxzeros                  : 10 *! Maximum number of Bessel zeros used for SW 
hfxreadvmatrix               : F *! Read restart information for the V matrix ( 
hfxwritevmatrix              : F *! Write restart information for the V matrix  
hfxreadxmatrix               : F *! Read restart information for the X matrix ( 
hfxwritexmatrix              : F *! Write restart information for the X matrix  
hfxdebug                     : F *! Debug HFx? (Boolean)                        
hfxmetric                    : ELECTROSTATIC *! Electrostatic or overlap metric 
hfxoverlapindirect           : F *! Inversions done for overlap metric (Boolean 
hfximproveinverse            : F *! Use Hotelling improvement when calculating  
hfxcthreshold                : 0.000000000000000E+000 *! Absolute magnitude bel 
hfxcachelimitforsnpos        : 1024 *! Max cache size for SWOP-NGWF-product ove 
hfxcachelimitforswops        : 1024 *! Max cache size for SWs or SWpots in PPDs 
hfxcachelimitforwmats        : 1024 *! Max cache size for W-matrices (in MiB) ( 
hfxcachelimitforexpansions   : 1024 *! Max cache size for expansions (tb_swpot_ 
hfxcachelimitforps           : 1024 *! Max cache size for p_beta_delta (in MiB) 
hfxcachelimitforngwfs        : 256 *! Max cache size for remote NGWFs (in MiB)  
hfxcachelimitfordknblks      : 50 *! Max cache size for remote DKN blocks (in M 
zerototalforce               : T *! Subtract avg force to ensure Newton's 3rd l 
ddeccalculate                : F *! Performs DDEC charge analysis (Boolean)     
ddecwriterad                 : F *! Write DDEC partial radial density for each  
ddecclassicalhirshfeld       : F *! DDEC range of IH (+/-) ionic reference stat 
ddecradnpts                  : 100 *! Number of spherical shells per atom (Inte 
ddecradrcut                  : 10.0000000000000      bohr *! Radius of largest  
ddecmaxit                    : 2000 *! Maximum number of DDEC iterations (Integ 
ddecconvthreshold            : 2.000000000000000E-005 *! DDEC charge convergenc 
ddecihfraction               : 0.214285714285714 *! DDEC IH fraction (Double Pr 
ddeczerothreshold            : 1.000000000000000E-007 *! DDEC threshold to negl 
ddecihionicrange             : 2 *! DDEC range of IH (+/-) ionic reference stat 
ddecatomsolvemaxit           : 480 *! Maximum number of iterations for the atom 
ddecrcompmaxit               : 50 *! Maximum number of iterations for finding r 
ddectargetradius             : 11.5000000000000      bohr *! DDEC force target  
ddecrcompeconv               : 5.000000000000000E-008 hartree *! Energy converg 
ddecwritercomp               : F *! Write compensated ionic densities for all r 
ddecrefdensinit              : T *! Initialize ISA guess densities as neutral r 
ddecrenormalizerefdens       : F *! Renormalize reference densities (Boolean)   
ddecmultipole                : F *! Compute DDEC dipoles and quadrupoles (Boole 
ddecmoment                   : F *! Compute DDEC moment (Boolean)               
ddecmomentorder              : 1 *! Order of DDEC moment (Integer)              
ddecinterpraddens            : F *! Interpolate converged radial densities for  
ddecavgrad                   : F *! Compute expected radius of each atom based  
ddecminshelldens             : 100.000000000000 *! Minimum number of points per 
ddecrmse                     : F *! Calculate DDEC point charge RMS V(r) (Boole 
writenbo                     : F *! Performs Natural Population Analysis and wr 
nboinitlclowdin              : T *! Performs atom-centered Lowdin symmetric ort 
nbowritelclowdin             : F *! Write a GENNBO FILE.47 containing all the a 
nbowritenpacomp              : F *! Writes individual NAO population into the s 
nboscaledm                   : T *! Scales density matrix in the FILE.47 output 
nbowritedipole               : F *! Writes dipole matrix to FILE.47 (Boolean)   
nboscalespin                 : T *! Whether or not partial density matrices for 
nbopnaoanalysis              : F *! S/P/D/F CHARACTER ANALYSIS ON PNAO. (Boolea 
nboaopnaoscheme              : ORIGINAL *! AO to PNAO scheme to use in generati 
plotnbo                      : F *! Plot NBO's orbitals from FILE.xx as defined 
nboplotorbtype               : *! Type of GENNBO-generated orbital to plot. (St 
threadsmax                   : 1 *! Number of threads in outer loops (Integer)  
threadsnumfftboxes           : 1 *! Number of threads to use in OpenMP-parallel 
threadsperfftbox             : 1 *! Number of nested threads used for FFT box o 
threadspercellfft            : 1 *! Number of threads to use in OpenMP-parallel 
threadsnummkl                : 1 *! Number of threads to use in OpenMP-parallel 
%block positionsabs          : *! Cartesian positions for each atom (Block)     
O 47.82274073160245      47.25667645460973      45.98252560975496               
H 49.02657873213836      46.37388321646128      47.05079896262087               
H 48.98893597357800      48.00111084095992      44.77769116409311               
%endblock positionsabs       : *! Cartesian positions for each atom (Block)     
%block latticecart           : *! The simulation cell lattice vectors (Block)   
94.486315649999995      0.000000000000000       0.000000000000000               
0.000000000000000       94.486315649999995      0.000000000000000               
0.000000000000000       0.000000000000000       94.486315649999995              
%endblock latticecart        : *! The simulation cell lattice vectors (Block)   
%block species               : *! Species information (symbol, atomic number, n 
O O 8 4 6.0                                                                     
H H 1 3 6.0                                                                     
%endblock species            : *! Species information (symbol, atomic number, n 
%block speciespot            : *! Pseudopotential name for each species (Block) 
O O_00PBE_OP.recpot                                                             
H H_00PBE_OP.recpot                                                             
%endblock speciespot         : *! Pseudopotential name for each species (Block) 
%block speciesatomicset      : *! Atomic set name for each species (Block)      
O SOLVE                                                                         
H SOLVE                                                                         
%endblock speciesatomicset   : *! Atomic set name for each species (Block)      
%block speciesconstraints    : *! Ionic constraints for each species (Block)    
O NONE                                                                          
H NONE                                                                          
%endblock speciesconstraints : *! Ionic constraints for each species (Block)    
-------------------------------------------------------------------------------
-------------------------------------------------------------------------------

<<<<<<<<<<<<<<<<<<<<<<<<< Pseudopotential information >>>>>>>>>>>>>>>>>>>>>>>>>
File: O_00PBE_OP.recpot [ 2001 points up to Gmax=  52.9 (1/bohr)]
  Atomic number:  8;  ionic charge:  6.000000
    Shell 1: l = 1; rc = 1.54 bohr
File: H_00PBE_OP.recpot [ 2001 points up to Gmax=  52.9 (1/bohr)]
  Atomic number:  1;  ionic charge:  1.000000
    Local potential
<<<<<<<<<<<<<<<<<<<<<<<<<<<<<<<<<<<<<<< >>>>>>>>>>>>>>>>>>>>>>>>>>>>>>>>>>>>>>>

------------------------- Atom counting information ---------------------------
Symbol    Natoms    Nngwfs    Nprojs
  O          1         4         3
  H          2         6         0
.......   ......    ......    ......
Totals:      3        10         3
-------------------------------------------------------------------------------
 
============================== PSINC grid sizes ================================
                      Simulation cell:  132 x 132 x 132
                              FFT-box:   55 x  55 x  55
                                  PPD:    6 x   6 x   1
Grid space d1=  0.715805421591a0 (KE cutoff=  14.82566Eh = 403.42673eV)
Grid space d2=  0.715805421591a0 (KE cutoff=  14.82566Eh = 403.42673eV)
Grid space d3=  0.715805421591a0 (KE cutoff=  14.82566Eh = 403.42673eV)
================================================================================

********************** Fourier parallelisation information *********************
       Coarse grid (whole simulation cell) dimensions:    132   132   132
          Real-space ('12') slabs/node (min max mean):    132   132   132
         Recip-space ('23') slabs/node (min max mean):     67    67    67
********************************************************************************

********************** Fourier parallelisation information *********************
       Double grid (whole simulation cell) dimensions:    264   264   264
          Real-space ('12') slabs/node (min max mean):    264   264   264
         Recip-space ('23') slabs/node (min max mean):    133   133   133
********************************************************************************

Determining parallel strategy ...
... using space-filling curve
... NGWF load balancing: max     10;  min     10;  average     10
... Projector load balancing: max      3;  min      3;  average      3
... done
Calculating Ewald energy ...
              Ewald: real-space energy =       6.571766
        Ewald: reciprocal-space energy =       0.081892
         Ewald: (sum_charge)**2 Energy =       0.234823
         Ewald: (sum_charge**2) Energy =       0.482986
                          Ewald Energy =       5.935849
Basis initialisation ...
... Atom positions lie inside simulation cell
... NGWF spheres initialised
... Projector spheres initialised
... NGWF tight boxes initialised
... Tight-boxes gathered
... NGWF basis size (local,global):      13244     13244
... Nonlocal pseudopotential projector initialisation
... done

=========================== Sparse matrix information ==========================
                        Overlap matrix filling: 100.00%
                        Density kernel filling: 100.00%
              NGWF-Proj overlap matrix filling: 100.00%
                    Hamiltonian matrix filling: 100.00%
                  NGWF diagonal matrix filling:  34.00%
                             KS matrix filling: 100.00% 
                           KSKS matrix filling: 100.00% 
================================================================================

Sparse matrix initialisation ... done

Atom SCF Calculation for O  : Z (AE atom) =   8 : Z (PS atom) =   6
Config String:
Orbitals (num,occ):  2     2.00 4.00
Orbitals   (num,l):  2        0    1
Real-space Grid (nr,dr,rmax):  637    0.0094339623    6.0000000000
Spherical Bessel Basis (nsws,lmax,cutoff):   25    1   88.1975861389
Confining potential (l,width,scale):  0    3.0000000000  100.0000000000
Confining potential (l,width,scale):  1    3.0000000000  100.0000000000
  1 3216.4518354715   -7.1202816974   10.1554512533   -2.4512395525
  2 1275.3268459984   -3.1443812453   13.3511488054   -3.1747088977
  3  655.6100215422   -2.9485004107   13.5591716205   -3.2265097030
  4  333.4383110991   -2.9071229743   13.6038731329   -3.2393597159
  5  165.9195334793   -2.8936012298   13.6186080893   -3.2442341554
  6   78.8111333398   -2.8876998472   13.6250676297   -3.2465384671
  7   33.5149711848   -2.8848489821   13.6281943061   -3.2476984221
  8    9.9610079041   -2.8834315976   13.6297503547   -3.2482910000
  9   -2.2870418903   -2.8827209226   13.6305310368   -3.2485948083
 10   -8.6560240825   -2.8823635388   13.6309238114   -3.2487507577
 11  -11.9678934703   -2.8821835875   13.6311216658   -3.2488308715
 12  -13.6900650503   -2.8820929160   13.6312213986   -3.2488720574
 13  -14.5855940943   -2.8820472100   13.6312716928   -3.2488932467
 14  -15.0512691430   -2.8820241631   13.6312970640   -3.2489041566
 15  -15.2934201584   -2.8820125389   13.6313098662   -3.2489097782
 16  -15.4193386906   -2.8820066745   13.6313163278   -3.2489126774
 17  -15.4848163341   -2.8820037152   13.6313195901   -3.2489141737
 18  -15.5188647147   -2.8820022215   13.6313212375   -3.2489149466
 19  -15.5365698769   -2.8820014674   13.6313220696   -3.2489153462
 20  -15.5457765642   -2.8820010866   13.6313224901   -3.2489155530
 21  -15.5505640434   -2.8820008943   13.6313227026   -3.2489156600
 22  -15.5530535338   -2.8820007971   13.6313228100   -3.2489157156
 23  -15.5543480695   -2.8820007479   13.6313228644   -3.2489157443
 24  -15.5550212284   -2.8820007231   13.6313228919   -3.2489157593
 25  -15.5553712713   -2.8820007105   13.6313229058   -3.2489157671
 26  -15.5555532937   -2.8820007042   13.6313229129   -3.2489157711
 27  -15.5556479455   -2.8820007009   13.6313229164   -3.2489157732
 28  -15.5556971644   -2.8820006993   13.6313229182   -3.2489157743
 29  -15.5557227583   -2.8820006985   13.6313229191   -3.2489157749
 30  -15.5557360672   -2.8820006981   13.6313229196   -3.2489157752
 31  -15.5557429878   -2.8820006979   13.6313229199   -3.2489157753
 32  -15.5557465865   -2.8820006978   13.6313229200   -3.2489157754
 33  -15.5557484578   -2.8820006977   13.6313229200   -3.2489157755
 34  -15.5557494309   -2.8820006977   13.6313229201   -3.2489157755
 35  -15.5557499369   -2.8820006977   13.6313229201   -3.2489157755
 36  -15.5557502000   -2.8820006976   13.6313229201   -3.2489157755
 37  -15.5557503369   -2.8820006976   13.6313229201   -3.2489157755
 38  -15.5557504080   -2.8820006976   13.6313229201   -3.2489157755
Atom SCF converged after  38 iterations to a total energy of    -15.55575041

Atom SCF Calculation for H  : Z (AE atom) =   1 : Z (PS atom) =   1
Config String:
Orbitals (num,occ):  3     1.00 0.00 0.00
Orbitals   (num,l):  3        0    0    1
Real-space Grid (nr,dr,rmax):  637    0.0094339623    6.0000000000
Spherical Bessel Basis (nsws,lmax,cutoff):   25    1   88.1975861389
Confining potential (l,width,scale):  0    3.0000000000  100.0000000000
Confining potential (l,width,scale):  1    3.0000000000  100.0000000000
  1  537.4654842999   -0.2254827711    0.2820958681   -0.2424203425
  2  214.7280855807   -0.2112694385    0.3031950732   -0.2589113369
  3  111.4461646031   -0.2047684684    0.3114512359   -0.2660487211
  4   57.7393944033   -0.2013056753    0.3157781989   -0.2698901558
  5   29.8120993670   -0.1995701427    0.3179353179   -0.2718414940
  6   15.2900770756   -0.1987217522    0.3189853766   -0.2728079371
  7    7.7387185466   -0.1983116029    0.3194906733   -0.2732812799
  8    3.8120572281   -0.1981142618    0.3197325181   -0.2735121253
  9    1.7702139201   -0.1980194628    0.3198480134   -0.2736246301
 10    0.7084643782   -0.1979739171    0.3199031408   -0.2736795313
 11    0.1563583683   -0.1979520107    0.3199294648   -0.2737063879
 12   -0.1307352713   -0.1979414564    0.3199420468   -0.2737195666
 13   -0.2800234226   -0.1979363608    0.3199480681   -0.2737260566
 14   -0.3576530938   -0.1979338951    0.3199509539   -0.2737292650
 15   -0.3980204917   -0.1979326989    0.3199523390   -0.2737308575
 16   -0.4190115498   -0.1979321171    0.3199530049   -0.2737316511
 17   -0.4299269194   -0.1979318334    0.3199533256   -0.2737320484
 18   -0.4356029284   -0.1979316946    0.3199534802   -0.2737322480
 19   -0.4385544652   -0.1979316266    0.3199535549   -0.2737323488
 20   -0.4400892722   -0.1979315931    0.3199535911   -0.2737323998
 21   -0.4408873768   -0.1979315766    0.3199536086   -0.2737324258
 22   -0.4413023942   -0.1979315685    0.3199536171   -0.2737324391
 23   -0.4415182051   -0.1979315644    0.3199536212   -0.2737324459
 24   -0.4416304277   -0.1979315624    0.3199536232   -0.2737324494
 25   -0.4416887841   -0.1979315614    0.3199536241   -0.2737324512
 26   -0.4417191298   -0.1979315609    0.3199536246   -0.2737324521
 27   -0.4417349097   -0.1979315607    0.3199536248   -0.2737324526
 28   -0.4417431154   -0.1979315606    0.3199536250   -0.2737324529
 29   -0.4417473824   -0.1979315605    0.3199536250   -0.2737324530
 30   -0.4417496013   -0.1979315605    0.3199536250   -0.2737324531
 31   -0.4417507551   -0.1979315605    0.3199536250   -0.2737324531
 32   -0.4417513551   -0.1979315604    0.3199536251   -0.2737324531
 33   -0.4417516671   -0.1979315604    0.3199536251   -0.2737324531
 34   -0.4417518294   -0.1979315604    0.3199536251   -0.2737324531
 35   -0.4417519137   -0.1979315604    0.3199536251   -0.2737324531
Atom SCF converged after  35 iterations to a total energy of     -0.44175191
 
WARNING in ngwfs_initialise: Setting radial NGWF functions for species  2 (H):
Last NGWF on atom has m = -1 and does not complete set of m-values for l = 1.
This breaks symmetry and may cause unstable NGWF optimisation and poor 
convergence. Suggest increasing number of NGWFs per atom from   3 to   5.
NB: All NGWF radial function angular momenta:     0    0    1
 
NGWF initialisation ...... done
============ Calculation of NGWF S^-1 using Hotelling algorithm ================ 
         Iteration  |  Frobenius norm and Maximum abs value    (of I-S*S_n^-1)   
               1       0.27740038E+01     0.88297553E+00
               2       0.25501354E+01     0.79143516E+00
               3       0.22877546E+01     0.65985374E+00
               4       0.20006279E+01     0.58536542E+00
               5       0.16750874E+01     0.51301847E+00
               6       0.13173537E+01     0.43956114E+00
               7       0.98038754E+00     0.34256439E+00
               8       0.64260731E+00     0.22884534E+00
               9       0.29586303E+00     0.10911065E+00
              10       0.65937583E-01     0.25554757E-01
              11       0.36621642E-02     0.14525539E-02
              12       0.12836978E-04     0.50157425E-05
              13       0.16444260E-09     0.63699157E-10
              14       0.15075436E-14     0.77715612E-15
================================================================================
Up spin density kernel initialisation ... 
======= Optimisation of K by Palser-Manolopoulos canonical purification ======== 
         Iteration  |  Band structure energy |    c_n   
               1          -1.47907816517287    0.4155061
               2          -1.67525085150861    0.4523849
               3          -1.87423212507795    0.4911496
               4          -2.03766012390063    0.5139777
               5          -2.12858193434844    0.5109113
               6          -2.16948786759995    0.5030677
               7          -2.18101308620853    0.5001089
               8          -2.18207478122016    0.5000001
               9          -2.18208384585822    0.4999999
              10          -2.18208384652038   -1.0070596
Termination criterion satisfied: c_n < 0
Final occupancy bounds: [    0.00000000000000:    1.00000000000000]
Closest occupancy to 0.5:     1.00000000000000
================================================================================
... done

Writing density kernel to file "water.dkn" ... done
   Initial electron number for spin 1:       8.00000000
     Final electron number for spin 1:       8.00000000
................................................................................
<<<<<<<<<<<<<<<< Penalty functional density kernel optimisation >>>>>>>>>>>>>>>>
~~~~~~~~~~~~~~~~~~~~~~~~~~~~~~~~~~~~~~~~~~~~~~~~~~~~~~~~~~~~~~~~~~~~~~~~~~~~~~~~
iter|       energy      |   rms grad  |  commutator |LScoef|CGcoef|      Ne    |
      Q0=E0+P0:     -16.535917581698=    -16.535917581698+      0.000000000000
    Trial step:       1.000000000000
            G0:      -9.183292255231
WARNING: minimum value of charge density: -0.1553
      Q1=E1+P1:     200.048495693615=    -21.637113507919+    221.685609201534
Quadratic term:    -225.767705530544
   Linear term:      -9.183292255231
  Optimal step:       0.020337922631
 Predicted min:     -16.629302125390
    !!! Quadratic minimum step length accepted !!!
 1    -16.53591758169837 0.30303947359 0.02830632302 0.0203  0.000    8.00000000
WARNING: minimum value of charge density: -0.0004
      Q0=E0+P0:     -16.706409924894=    -16.722392560975+      0.015982636081
    Trial step:       0.142611088737
            G0:      -0.064910541215
WARNING: minimum value of charge density: -0.0005
      Q1=E1+P1:     -16.715344799030=    -16.732549523572+      0.017204724541
Quadratic term:      -0.000322088817
   Linear term:      -0.009256962953
  Optimal step:       2.049350203339
 Predicted min:     -16.772922140313
    !!! Quadratic minimum step length accepted !!!
 2    -16.72239256097484 0.24827482067 0.03583331592 2.0494 -0.811    8.00000000
WARNING: minimum value of charge density: -0.0014
      Q0=E0+P0:     -16.764522123988=    -16.836220102903+      0.071697978915
    Trial step:       0.540610824625
            G0:      -5.830266953592
WARNING: minimum value of charge density: -0.0173
      Q1=E1+P1:       3.116294653502=    -20.146349053470+     23.262643706972
Quadratic term:     -23.032722203057
   Linear term:      -3.151905425567
  Optimal step:       0.036989856784
 Predicted min:     -16.872352493800
    !!! Quadratic minimum step length accepted !!!
 3    -16.83622010290320 0.24256734832 0.05860742539 0.0370  3.993    8.00000000
WARNING: minimum value of charge density: -0.0022

======================== Penalty functional minimisation =======================
   Final total energy     :     -17.115982261091
   Final penalty energy   :       0.181054231513
   RMS occupancy error    :       0.067278
   Occupancy bounds       : [-0.087, 1.106]
================================================================================

Finished density kernel iterations (   3)

Writing density kernel to file "water.dkn" ... done

################################################################################
########################### NGWF CG iteration  001 #############################
################################################################################
****** Reciprocal space K.E. preconditioning with k_zero =  3.0000 a0^-1 *******
   Initial electron number for spin 1:       8.00000000
     Final electron number for spin 1:       8.00000000

=================== Penalty functional idempotency correction ==================
 RMS occupancy error at iteration   1:  0.067278 (step -0.3962 Ne1=      8.0000)
 RMS occupancy error at iteration   2:  0.003540 (step -0.4973 Ne1=      8.0000)
 RMS occupancy error at iteration   3:  0.000045 (step -0.5001 Ne1=      8.0000)
            Final RMS occupancy error   :  0.000000 (Ne1=      8.0000)
               Final occupancy bounds   : [ -0.0000,  1.0000]
================================================================================

................................................................................
<<<<<<<<<<<<<< LNV (Original version) density kernel optimisation >>>>>>>>>>>>>>
~~~~~~~~~~~~~~~~~~~~~~~~~~~~~~~~~~~~~~~~~~~~~~~~~~~~~~~~~~~~~~~~~~~~~~~~~~~~~~~~
iter|       energy      |  rms DeltaK |  commutator |LScoef|CGcoef|      Ne    |
      ideal mu1:      -0.580240498448
             Q0:     -16.510091855181
             G0:      -0.262272721604
   RMS gradient:       0.051212568926
    Initial Ne1:       8.00000002
      Final Ne1:       8.00000000

=================== Penalty functional idempotency correction ==================
 RMS occupancy error at iteration   1:  0.000363 (step -0.4991 Ne1=      8.0000)
 RMS occupancy error at iteration   2:  0.000000 (step -0.5000 Ne1=      8.0000)
            Final RMS occupancy error   :  0.000000 (Ne1=      8.0000)
               Final occupancy bounds   : [  0.0000,  1.0000]
================================================================================

 1    -16.51009185518118 0.00000000000 0.06401571090 0.1000  0.000    8.00000000
      ideal mu1:      -0.554437167960
             Q0:     -16.531368035599
             G0:      -0.166229575498
   RMS gradient:       0.032000477226
     Trial step:       0.500000000000
             Q1:     -16.491879782028
 Quadratic coef:       0.122603041321
 Linear coef   :      -0.083114787749
           Qmin:     -16.545454284742
Quadratic minimum step length (  0.169479457552) accepted
    Initial Ne1:       8.00000001
      Final Ne1:       8.00000000

=================== Penalty functional idempotency correction ==================
 RMS occupancy error at iteration   1:  0.001538 (step -0.4964 Ne1=      8.0000)
 RMS occupancy error at iteration   2:  0.000003 (step -0.5000 Ne1=      8.0000)
            Final RMS occupancy error   :  0.000000 (Ne1=      8.0000)
               Final occupancy bounds   : [  0.0000,  1.0000]
================================================================================

 2    -16.53136803559939 0.00163920451 0.04000059653 0.1695  0.390    8.00000000
      ideal mu1:      -0.506211721418
             Q0:     -16.545188386695
             G0:      -0.001609141810
   RMS gradient:       0.004050691293
     Trial step:       0.291100891060
             Q1:     -16.545457117313
 Quadratic coef:       0.000199691997
 Linear coef   :      -0.000468422615
           Qmin:     -16.545463084416
Quadratic minimum step length (  0.341421394962) accepted
    Initial Ne1:       8.00000000
      Final Ne1:       8.00000000

=================== Penalty functional idempotency correction ==================
 RMS occupancy error at iteration   1:  0.000105 (step -0.4998 Ne1=      8.0000)
            Final RMS occupancy error   :  0.000000 (Ne1=      8.0000)
               Final occupancy bounds   : [ -0.0000,  1.0000]
================================================================================

 3    -16.54518838669514 0.00286037736 0.00506336412 0.3414  0.016    8.00000000
      ideal mu1:      -0.503955698350
             Q0:     -16.545463486005
             G0:      -0.000080375376
   RMS gradient:       0.000895551081
     Trial step:       0.315258738658
             Q1:     -16.545481526337
 Quadratic coef:       0.000007298708
 Linear coef   :      -0.000025339040
           Qmin:     -16.545485478490
Quadratic minimum step length (  0.547244339211) accepted
    Initial Ne1:       8.00000055
      Final Ne1:       8.00000000

=================== Penalty functional idempotency correction ==================
 RMS occupancy error at iteration   1:  0.000013 (step -0.5000 Ne1=      8.0000)
            Final RMS occupancy error   :  0.000000 (Ne1=      8.0000)
               Final occupancy bounds   : [  0.0000,  1.0000]
================================================================================

 4    -16.54546348600545 0.00003514086 0.00111943886 0.5472  0.049    8.00000000
      ideal mu1:      -0.504864808860
             Q0:     -16.545485477522
             G0:      -0.000029388685
   RMS gradient:       0.000542206084
     Trial step:       0.415359555226
             Q1:     -16.545491529795
 Quadratic coef:       0.000006154599
 Linear coef   :      -0.000012206871
           Qmin:     -16.545491530220
Quadratic minimum step length (  0.411906693330) accepted
    Initial Ne1:       8.00000014
      Final Ne1:       8.00000000

=================== Penalty functional idempotency correction ==================
 RMS occupancy error at iteration   1:  0.000005 (step -0.5000 Ne1=      8.0000)
            Final RMS occupancy error   :  0.000000 (Ne1=      8.0000)
               Final occupancy bounds   : [  0.0000,  1.0000]
================================================================================

 5    -16.54548547752209 0.00000288959 0.00067775760 0.4119  0.367    8.00000000
      ideal mu1:      -0.504370152365
             Q0:     -16.545491530941
             G0:      -0.000004581448
   RMS gradient:       0.000214014109
     Trial step:       0.413629521355
             Q1:     -16.545492666480
 Quadratic coef:       0.000000759483
 Linear coef   :      -0.000001895022
           Qmin:     -16.545492713031
Quadratic minimum step length (  0.516033489023) accepted
    Initial Ne1:       8.00000002
      Final Ne1:       8.00000000

=================== Penalty functional idempotency correction ==================
 RMS occupancy error at iteration   1:  0.000001 (step -0.5000 Ne1=      8.0000)
            Final RMS occupancy error   :  0.000000 (Ne1=      8.0000)
               Final occupancy bounds   : [  0.0000,  1.0000]
================================================================================

 6    -16.54549153094110 0.00000104858 0.00026751764 0.5160  0.156    8.00000000
      ideal mu1:      -0.504409094356
             Q0:     -16.545492713084
             G0:      -0.000000682186
   RMS gradient:       0.000082594573
     Trial step:       0.462002905908
             Q1:     -16.545492839886
 Quadratic coef:       0.000000188370
 Linear coef   :      -0.000000315172
           Qmin:     -16.545492844917
Quadratic minimum step length (  0.386500665659) accepted
    Initial Ne1:       8.00000000
      Final Ne1:       8.00000000

=================== Penalty functional idempotency correction ==================
 RMS occupancy error at iteration   1:  0.000000 (step -0.5000 Ne1=      8.0000)
            Final RMS occupancy error   :  0.000000 (Ne1=      8.0000)
               Final occupancy bounds   : [  0.0000,  1.0000]
================================================================================

 7    -16.54549271308438 0.00000017969 0.00010324322 0.3865  0.000    8.00000000
      ideal mu1:      -0.504541136525
             Q0:     -16.545492844919
             G0:      -0.000000087907
   RMS gradient:       0.000029649326
     Trial step:       0.422568847254
             Q1:     -16.545492867724
 Quadratic coef:       0.000000014342
 Linear coef   :      -0.000000037147
           Qmin:     -16.545492868972
Quadratic minimum step length (  0.547251851665) accepted
    Initial Ne1:       8.00000000
      Final Ne1:       8.00000000

=================== Penalty functional idempotency correction ==================
 RMS occupancy error at iteration   1:  0.000000 (step -0.5000 Ne1=      8.0000)
            Final RMS occupancy error   :  0.000000 (Ne1=      8.0000)
               Final occupancy bounds   : [ -0.0000,  1.0000]
================================================================================

 8    -16.54549284491868 0.00000001648 0.00003706166 0.5473  0.129    8.00000000
      ideal mu1:      -0.504523197876
             Q0:     -16.545492868972
             G0:      -0.000000019877
   RMS gradient:       0.000014098560
     Trial step:       0.480886248624
             Q1:     -16.545492873504
 Quadratic coef:       0.000000005026
 Linear coef   :      -0.000000009559
           Qmin:     -16.545492873516
Quadratic minimum step length (  0.457253087904) accepted
    Initial Ne1:       8.00000000
      Final Ne1:       8.00000000

=================== Penalty functional idempotency correction ==================
 RMS occupancy error at iteration   1:  0.000000 (step -0.5000 Ne1=      8.0000)
            Final RMS occupancy error   :  0.000000 (Ne1=      8.0000)
               Final occupancy bounds   : [  0.0000,  1.0000]
================================================================================

 9    -16.54549286897191 0.00000000339 0.00001762320 0.4573  0.226    8.00000000
      ideal mu1:      -0.504531789954
10    -16.54549287351656 0.00000000071 0.00000798681 0.0000  0.000    8.00000000
Finished density kernel iterations (  10)

Writing density kernel to file "water.dkn" ... done

           ........................................................
           | *** NGWF optimisation not converged ***              |
           | RMS NGWF gradient =    0.00849023317102              |
           | Criteria not satisfied:                              |
           | -> RMS NGWF gradient higher than set threshold.      |
           ========================================================

------------------------------- NGWF line search -------------------------------
============ Calculation of NGWF S^-1 using Hotelling algorithm ================ 
         Iteration  |  Frobenius norm and Maximum abs value    (of I-S*S_n^-1)   
               1       0.20923096E-01     0.12954783E-01
               2       0.24442719E-03     0.15903659E-03
               3       0.34853517E-07     0.23944725E-07
               4       0.17019718E-14     0.77715612E-15
================================================================================
============ Calculation of NGWF S^-1 using Hotelling algorithm ================ 
         Iteration  |  Frobenius norm and Maximum abs value    (of I-S*S_n^-1)   
               1       0.22967440E-01     0.14161246E-01
               2       0.29618477E-03     0.18743650E-03
               3       0.50543106E-07     0.32509043E-07
               4       0.23923050E-14     0.13322676E-14
================================================================================
RMS gradient                =       0.00849023317102
Trial step length           =               0.122474
Gradient along search dir.  =         -1.77824165883
Functional at step 0        =     -16.54549287351656
Functional at step 1        =     -16.70631418106237
Functional predicted        =     -16.75364574537050
Selected quadratic step     =               0.234111
Conjugate gradients coeff.  =               0.000000
--------------------------- NGWF line search finished --------------------------
                                               
Writing NGWFs to file "water.tightbox_ngwfs"....  done

################################################################################
########################### NGWF CG iteration  002 #############################
################################################################################
****** Reciprocal space K.E. preconditioning with k_zero =  3.0000 a0^-1 *******
   Initial electron number for spin 1:       8.08055142
     Final electron number for spin 1:       8.00000000

=================== Penalty functional idempotency correction ==================
 RMS occupancy error at iteration   1:  0.006619 (step -0.4841 Ne1=      8.0000)
 RMS occupancy error at iteration   2:  0.000029 (step -0.5000 Ne1=      8.0000)
            Final RMS occupancy error   :  0.000000 (Ne1=      8.0000)
               Final occupancy bounds   : [  0.0000,  1.0000]
================================================================================

................................................................................
<<<<<<<<<<<<<< LNV (Original version) density kernel optimisation >>>>>>>>>>>>>>
~~~~~~~~~~~~~~~~~~~~~~~~~~~~~~~~~~~~~~~~~~~~~~~~~~~~~~~~~~~~~~~~~~~~~~~~~~~~~~~~
iter|       energy      |  rms DeltaK |  commutator |LScoef|CGcoef|      Ne    |
      ideal mu1:      -0.501498482995
             Q0:     -16.753662397581
             G0:      -0.013082477113
   RMS gradient:       0.011437865672
     Trial step:       0.468920805802
             Q1:     -16.756280214389
 Quadratic coef:       0.003516828902
 Linear coef   :      -0.006134645710
           Qmin:     -16.756337668332
Quadratic minimum step length (  0.408985351510) accepted
    Initial Ne1:       7.99999989
      Final Ne1:       8.00000000

=================== Penalty functional idempotency correction ==================
 RMS occupancy error at iteration   1:  0.000322 (step -0.4992 Ne1=      8.0000)
            Final RMS occupancy error   :  0.000000 (Ne1=      8.0000)
               Final occupancy bounds   : [  0.0000,  1.0000]
================================================================================

 1    -16.75366239758134 0.00000000000 0.01429733195 0.4090  0.000    8.00000000
      ideal mu1:      -0.490262518786
             Q0:     -16.756336732983
             G0:      -0.000676666328
   RMS gradient:       0.002594584696
     Trial step:       0.437928921848
             Q1:     -16.756486410041
 Quadratic coef:       0.000146654698
 Linear coef   :      -0.000296331756
           Qmin:     -16.756486425613
Quadratic minimum step length (  0.442441491225) accepted
    Initial Ne1:       8.00000071
      Final Ne1:       8.00000000

=================== Penalty functional idempotency correction ==================
 RMS occupancy error at iteration   1:  0.000050 (step -0.4999 Ne1=      8.0000)
            Final RMS occupancy error   :  0.000000 (Ne1=      8.0000)
               Final occupancy bounds   : [ -0.0000,  1.0000]
================================================================================

 2    -16.75633673298335 0.00033440884 0.00324323117 0.4424  0.051    8.00000000
      ideal mu1:      -0.493768112562
             Q0:     -16.756486482242
             G0:      -0.000138307769
   RMS gradient:       0.001176468396
     Trial step:       0.440179423909
             Q1:     -16.756521962138
 Quadratic coef:       0.000025400338
 Linear coef   :      -0.000060880234
           Qmin:     -16.756522962100
Quadratic minimum step length (  0.527517125486) accepted
    Initial Ne1:       8.00000026
      Final Ne1:       8.00000000

=================== Penalty functional idempotency correction ==================
 RMS occupancy error at iteration   1:  0.000022 (step -0.5000 Ne1=      8.0000)
            Final RMS occupancy error   :  0.000000 (Ne1=      8.0000)
               Final occupancy bounds   : [  0.0000,  1.0000]
================================================================================

 3    -16.75648648224180 0.00001976569 0.00147058550 0.5275  0.206    8.00000000
      ideal mu1:      -0.492624516272
             Q0:     -16.756522977508
             G0:      -0.000026277507
   RMS gradient:       0.000512387390
     Trial step:       0.481873618699
             Q1:     -16.756529974046
 Quadratic coef:       0.000005665899
 Linear coef   :      -0.000012662437
           Qmin:     -16.756530052171
Quadratic minimum step length (  0.538457720294) accepted
    Initial Ne1:       7.99999998
      Final Ne1:       8.00000000

=================== Penalty functional idempotency correction ==================
 RMS occupancy error at iteration   1:  0.000007 (step -0.5000 Ne1=      8.0000)
            Final RMS occupancy error   :  0.000000 (Ne1=      8.0000)
               Final occupancy bounds   : [  0.0000,  1.0000]
================================================================================

 4    -16.75652297750779 0.00000555287 0.00064048423 0.5385  0.190    8.00000000
      ideal mu1:      -0.492449581218
             Q0:     -16.756530053157
             G0:      -0.000003103415
   RMS gradient:       0.000176143514
     Trial step:       0.509380575007
             Q1:     -16.756530981568
 Quadratic coef:       0.000000652409
 Linear coef   :      -0.000001580819
           Qmin:     -16.756531010758
Quadratic minimum step length (  0.617127415246) accepted
    Initial Ne1:       7.99999999
      Final Ne1:       8.00000000

=================== Penalty functional idempotency correction ==================
 RMS occupancy error at iteration   1:  0.000001 (step -0.5000 Ne1=      8.0000)
            Final RMS occupancy error   :  0.000000 (Ne1=      8.0000)
               Final occupancy bounds   : [  0.0000,  1.0000]
================================================================================

 5    -16.75653005315711 0.00000108906 0.00022017939 0.6171  0.118    8.00000000
      ideal mu1:      -0.492576015318
             Q0:     -16.756531010774
             G0:      -0.000000328971
   RMS gradient:       0.000057356441
     Trial step:       0.560671666513
             Q1:     -16.756531115683
 Quadratic coef:       0.000000079536
 Linear coef   :      -0.000000184445
           Qmin:     -16.756531117706
Quadratic minimum step length (  0.650103433295) accepted
    Initial Ne1:       8.00000000
      Final Ne1:       8.00000000

=================== Penalty functional idempotency correction ==================
 RMS occupancy error at iteration   1:  0.000000 (step -0.5000 Ne1=      8.0000)
            Final RMS occupancy error   :  0.000000 (Ne1=      8.0000)
               Final occupancy bounds   : [  0.0000,  1.0000]
================================================================================

 6    -16.75653101077401 0.00000013716 0.00007169555 0.6501  0.106    8.00000000
      ideal mu1:      -0.492555345546
             Q0:     -16.756531117707
             G0:      -0.000000053938
   RMS gradient:       0.000023224618
     Trial step:       0.603733861359
             Q1:     -16.756531132210
 Quadratic coef:       0.000000018061
 Linear coef   :      -0.000000032564
           Qmin:     -16.756531132385
Quadratic minimum step length (  0.544273563129) accepted
    Initial Ne1:       8.00000000
      Final Ne1:       8.00000000

=================== Penalty functional idempotency correction ==================
 RMS occupancy error at iteration   1:  0.000000 (step -0.5000 Ne1=      8.0000)
            Final RMS occupancy error   :  0.000000 (Ne1=      8.0000)
               Final occupancy bounds   : [  0.0000,  1.0000]
[...]

=================== Penalty functional idempotency correction ==================
 RMS occupancy error at iteration   1:  0.000000 (step -0.5000 Ne1=      8.0000)
            Final RMS occupancy error   :  0.000000 (Ne1=      8.0000)
               Final occupancy bounds   : [  0.0000,  1.0000]
================================================================================

 4    -16.77780478346532 0.00000000000 0.00000007505 0.2330  0.259    8.00000000
      ideal mu1:      -0.514152349433
             Q0:     -16.777804783465
             G0:      -0.000000000000
   RMS gradient:       0.000000035160
     Trial step:       0.386646743281
             Q1:     -16.777804783465
 Quadratic coef:       0.000000000000
 Linear coef   :      -0.000000000000
           Qmin:     -16.777804783465
Quadratic minimum step length (  0.032857419388) accepted
    Initial Ne1:       8.00000000
      Final Ne1:       8.00000000

=================== Penalty functional idempotency correction ==================
 RMS occupancy error at iteration   1:  0.000000 (step -0.5000 Ne1=      8.0000)
            Final RMS occupancy error   :  0.000000 (Ne1=      8.0000)
               Final occupancy bounds   : [  0.0000,  1.0000]
================================================================================

 5    -16.77780478346545 0.00000000000 0.00000004395 0.0329  0.343    8.00000000
      ideal mu1:      -0.514152344846
             Q0:     -16.777804783465
             G0:      -0.000000000000
   RMS gradient:       0.000000031505
     Trial step:       0.112712972630
             Q1:     -16.777804783465
 Quadratic coef:      -0.000000000000
 Linear coef   :      -0.000000000000
         Quadratic fit unsuccessful: proceeding to cubic fit
             Q2:     -16.777804783465
  Cubic LS coeff:       0.158949358502
Predicted energy:     -16.777804783465
Cubic minimum step length accepted
    Initial Ne1:       8.00000000
      Final Ne1:       8.00000000

=================== Penalty functional idempotency correction ==================
 RMS occupancy error at iteration   1:  0.000000 (step -0.5000 Ne1=      8.0000)
            Final RMS occupancy error   :  0.000000 (Ne1=      8.0000)
               Final occupancy bounds   : [  0.0000,  1.0000]
================================================================================

 6    -16.77780478346521 0.00000000000 0.00000003938 0.1589  0.803    8.00000000
      ideal mu1:      -0.514152315338
             Q0:     -16.777804783465
             G0:      -0.000000000000
   RMS gradient:       0.000000013518
     Trial step:       0.133849373156
             Q1:     -16.777804783465
 Quadratic coef:       0.000000000000
 Linear coef   :      -0.000000000000
           Qmin:     -16.777804783465
Quadratic minimum step length (  0.000511923773) accepted
    Initial Ne1:       8.00000000
      Final Ne1:       8.00000000

=================== Penalty functional idempotency correction ==================
 RMS occupancy error at iteration   1:  0.000000 (step -0.5000 Ne1=      8.0000)
            Final RMS occupancy error   :  0.000000 (Ne1=      8.0000)
               Final occupancy bounds   : [  0.0000,  1.0000]
================================================================================

 7    -16.77780478346546 0.00000000000 0.00000001690 0.0005  0.000    8.00000000
      ideal mu1:      -0.514152315355
             Q0:     -16.777804783465
             G0:      -0.000000000000
   RMS gradient:       0.000000013507
     Trial step:       0.008277721674
             Q1:     -16.777804783465
 Quadratic coef:      -0.000000000000
 Linear coef   :      -0.000000000000
         Quadratic fit unsuccessful: proceeding to cubic fit
             Q2:     -16.777804783465
  Cubic LS coeff:       0.006931436338
Predicted energy:     -16.777804783465
Cubic minimum step length accepted
    Initial Ne1:       8.00000000
      Final Ne1:       8.00000000

=================== Penalty functional idempotency correction ==================
 RMS occupancy error at iteration   1:  0.000000 (step -0.5000 Ne1=      8.0000)
            Final RMS occupancy error   :  0.000000 (Ne1=      8.0000)
               Final occupancy bounds   : [  0.0000,  1.0000]
================================================================================

 8    -16.77780478346536 0.00000000000 0.00000001688 0.0069  0.998    8.00000000
      ideal mu1:      -0.514152315800
             Q0:     -16.777804783465
             G0:      -0.000000000000
   RMS gradient:       0.000000013224
     Trial step:       0.007574727771
             Q1:     -16.777804783465
 Quadratic coef:       0.000000000000
 Linear coef   :      -0.000000000000
           Qmin:     -16.777804783465
Quadratic minimum step length (  0.000011600365) accepted
    Initial Ne1:       8.00000000
      Final Ne1:       8.00000000

=================== Penalty functional idempotency correction ==================
 RMS occupancy error at iteration   1:  0.000000 (step -0.5000 Ne1=      8.0000)
            Final RMS occupancy error   :  0.000000 (Ne1=      8.0000)
               Final occupancy bounds   : [  0.0000,  1.0000]
================================================================================

 9    -16.77780478346543 0.00000000000 0.00000001653 0.0000  0.959    8.00000000
      ideal mu1:      -0.514152315801
10    -16.77780478346538 0.00000000000 0.00000001653 0.0000  0.000    8.00000000
Finished density kernel iterations (  10)

Writing density kernel to file "water.dkn" ... done

           ........................................................
           | *** NGWF optimisation converged ***                  |
           | RMS NGWF gradient =    0.00000124767774              |
           | Maximum change in energy =  0.00000018011282 / atom  |
           | Criteria satisfied:                                  |
           | -> RMS NGWF gradient lower than set threshold.       |
           | -> Energy change per atom lower than set threshold.  |
           ========================================================

================================================================================
           ---------------- ENERGY COMPONENTS (Eh) ----------------
           | Kinetic                    :       10.86891205894245 |
           | Pseudopotential (local)    :      -46.09056949661839 |
           | Pseudopotential (non-local):       -3.18831230082178 |
           | Hartree                    :       19.82387626131960 |
           | Exchange-correlation       :       -4.12756055425808 |
           | Ewald                      :        5.93584924797081 |
           | Total                      :      -16.77780478346538 |
           --------------------------------------------------------
           ------ LOCAL ENERGY COMPONENTS FROM MATRIX TRACES ------
           | Pseudopotential (local)    :      -46.09056949661890 |
           | Hartree                    :       19.82387626131981 |
           --------------------------------------------------------
           Integrated density           :        7.99999999999909
           Integrated density tr(KS)    :        8.00000000000000
================================================================================


                    <<<<< CALCULATION SUMMARY >>>>>
|ITER|    RMS GRADIENT   |     TOTAL ENERGY    |   step   |     Epredicted      
   1     0.00849023317102    -16.54549287351656   0.234111    -16.75364574537050
   2     0.00177729188063    -16.75653113782253   0.364762    -16.77095227425458
   3     0.00092408403318    -16.77122368333335   0.410285    -16.77562293278363
   4     0.00055535434502    -16.77566903187324   0.392445    -16.77717237456269
   5     0.00030016940644    -16.77717785583358   0.323173    -16.77753701734812
   6     0.00018443723559    -16.77753739011796   0.426464    -16.77771644162156
   7     0.00011628560621    -16.77771638436922   0.313737    -16.77776868016618
   8     0.00006747173005    -16.77777002809199   0.262828    -16.77778515322948
   9     0.00005703751094    -16.77778691109377   0.377569    -16.77780206202990
  10     0.00002180079447    -16.77780424299494   0.067128    -16.77780469289021
  11     0.00000263729061    -16.77780478333339   0.001251    -16.77780478344073
  12     0.00000124767774    -16.77780478346538  <-- CG                         
 
===================== Density of States (DOS) calculation ======================
Writing "water_DOS.txt" ...  done
================================================================================
 
Writing bands to file "water.val_bands" ... done

=================== Orbital energy and occupancy information ===================

      Total number of orbitals:      10
   Number of occupied orbitals:       4
                 Occupancy sum:       4.000000000
                 HOMO-LUMO gap:       0.269630297 Eh
                 Mid-gap level:      -0.125046404 Eh

                        Orbital | Energy (Eh) | Occupancy
                            1    -0.968226770   1.0000000
                            2    -0.470697650   1.0000000
                            3    -0.357823291   1.0000000
                            4    -0.259861552   1.0000000
                        .......   --- gap ---   .........
                            5     0.009768744   0.0000000
                            6     0.102377765   0.0000000
                            7     0.237964816   0.0000000
                            8     0.274665213   0.0000000
                            9     0.334396762   0.0000000
                           10     0.404041545   0.0000000

================================================================================

********************* Unconstrained **********************
********************* Ewald forces  **********************
*                                                        *
* Element  Atom         Cartesian components (Eh/a)      *
* ------------------------------------------------------ *
*                       x            y            z      *
*                                                        *
*    O       1     -2.30074936   0.13293069   0.13450602 *
*    H       2      1.16935963  -0.93070254   1.14015809 *
*    H       3      1.13138973   0.79777185  -1.27466411 *
*                                                        *
**********************************************************
TOTAL:             -0.00000000   0.00000000  -0.00000000
 
********************* Unconstrained **********************
***************** Local potential forces *****************
*                                                        *
* Element  Atom         Cartesian components (Eh/a)      *
* ------------------------------------------------------ *
*                       x            y            z      *
*                                                        *
*    O       1      1.49667744  -0.08663637  -0.08347656 *
*    H       2     -1.16850648   0.92169283  -1.13118274 *
*    H       3     -1.12830639  -0.78682001   1.26710331 *
*                                                        *
**********************************************************
TOTAL:             -0.80013544   0.04823646   0.05244401
********************* Unconstrained **********************
*************** Non-local potential forces ***************
*                                                        *
* Element  Atom         Cartesian components (Eh/a)      *
* ------------------------------------------------------ *
*                       x            y            z      *
*                                                        *
*    O       1      0.77465128  -0.04362110  -0.02345489 *
*    H       2      0.00000000   0.00000000   0.00000000 *
*    H       3      0.00000000   0.00000000   0.00000000 *
*                                                        *
**********************************************************
TOTAL:              0.77465128  -0.04362110  -0.02345489
 
********************* Unconstrained **********************
************ NGWF non self-consistent forces *************
*                                                        *
* Element  Atom         Cartesian components (Eh/a)      *
* ------------------------------------------------------ *
*                       x            y            z      *
*                                                        *
*    O       1      0.00250159  -0.00056440  -0.00269192 *
*    H       2     -0.00008823   0.00017235  -0.00036793 *
*    H       3     -0.00007077  -0.00023886   0.00016277 *
*                                                        *
**********************************************************
TOTAL:              0.00234259  -0.00063092  -0.00289708
 
********************* Unconstrained **********************
****** Correction to ensure the total force is zero ******
*                                                        *
* Element  Atom         Cartesian components (Eh/a)      *
* ------------------------------------------------------ *
*                       x            y            z      *
*                                                        *
*    O       1     -0.00771385   0.00132815   0.00869735 *
*    H       2     -0.00771385   0.00132815   0.00869735 *
*    H       3     -0.00771385   0.00132815   0.00869735 *
*                                                        *
**********************************************************
TOTAL:             -0.02314156   0.00398444   0.02609205

********************* Unconstrained **********************
************************* Forces *************************
*                                                        *
* Element  Atom         Cartesian components (Eh/a)      *
* ------------------------------------------------------ *
*                       x            y            z      *
*                                                        *
*    O       1     -0.01920520   0.00078067   0.01618530 *
*    H       2      0.00847878  -0.01016550  -0.00008992 *
*    H       3      0.01072643   0.00938483  -0.01609538 *
*                                                        *
**********************************************************
* TOTAL:            0.00000000   0.00000000   0.00000000 *
**********************************************************

------------------------------ TIMING INFORMATION ------------------------------
AVERAGE TIME:    3195.317s on      1 node(s)                                    
TOTAL TIME:      3195.317s on      1 node(s)                                    
================== AVERAGE TIMINGS FROM ALL NODES (CUMULATIVE) =================
|| TAG                                    #calls    cpu time   %total  Gflops ||
|| work_imbalance                       :     1        0.00s   0.000%  ------ ||
|| ewald_calculate_forces_realspace     :     1        0.00s   0.000%  ------ ||
|| dense_eigensolve                     :     1        0.00s   0.000%  ------ ||
|| ewald_calculate_forces_recipspace    :     1        0.00s   0.000%  ------ ||
|| ewald_calculate_energy               :     1        0.00s   0.000%  ------ ||
|| ewald_calculate_forces               :     1        0.00s   0.000%  ------ ||
|| palser_mano_kernel_optimise          :     1        0.00s   0.000%  ------ ||
|| sparse_init                          :     1        0.00s   0.000%  ------ ||
|| ngwf_gradient_coeffs                 :    12        0.00s   0.000%  ------ ||
|| pseudopotentials_nonlocal_mat        :    24        0.00s   0.000%  ------ ||
|| sparse_hotelling_invert              :    24        0.00s   0.000%  ------ ||
|| restart_kernel_write                 :    14        0.01s   0.000%  ------ ||
|| eigenstates_calculate                :     1        0.01s   0.000%  ------ ||
|| integrals_brappd_ketppd              :    24        0.01s   0.000%  ------ ||
|| restart_ngwfs_tightbox_output        :    11        0.01s   0.000%  ------ ||
|| basis_extract_function_from_box      :   240        0.01s   0.000%  ------ ||
|| kernel_purify                        :   377        0.02s   0.001%  ------ ||
|| lnv_gradient_norm                    :   120        0.03s   0.001%  ------ ||
|| kernel_fix                           :   120        0.03s   0.001%  ------ ||
|| sparse_trace                         :  3296        0.06s   0.002%  ------ ||
|| sparse_product                       :  4190        0.08s   0.003%  ------ ||
|| integrals_grad                       :     1        0.11s   0.003%  ------ ||
|| nonsc_forces_ngwfs_calc              :     1        0.11s   0.003%  ------ ||
|| projectors_func_grad_ovlp_box        :     3        0.15s   0.005%  ------ ||
|| pseudo_nl_calculate_forces           :     1        0.15s   0.005%  ------ ||
|| integrals_locpot_mat_els_batch       :   131        0.24s   0.008%  ------ ||
|| basis_dot_function_with_box          : 15296        0.26s   0.008%  ------ ||
|| density_batch_row_sums               :   257        0.47s   0.015%  ------ ||
|| pseudo_make_structure_factor         :     1        0.52s   0.016%  ------ ||
|| basis_add_function_to_box            : 30500        0.56s   0.017%  ------ ||
|| density_initial_guess_real           :     1        0.58s   0.018%  ------ ||
|| projectors_init_fftbox_recip         :    39        0.90s   0.028%  ------ ||
|| projectors_func_ovlp_box             :    24        1.06s   0.033%  ------ ||
|| basis_copy_function_to_box           :  4240        1.34s   0.042%  ------ ||
|| integrals_kinetic                    :    24        1.54s   0.048%  ------ ||
|| fourier_apply_box_pair               :   365        1.63s   0.051%   3.234 ||
|| pseudopotentials_local_on_grid       :     1        1.78s   0.056%  ------ ||
|| pseudo_local_calculate_forces        :     1        2.44s   0.076%  ------ ||
|| projectors_gradient_batch            :    12        3.12s   0.098%  ------ ||
|| forces_calculate                     :     1        3.27s   0.102%  ------ ||
|| cell_grid_extract_box                :  1454        3.97s   0.124%  ------ ||
|| cell_grid_deposit_box                :  2573        8.17s   0.256%  ------ ||
|| density_fftbox_deposit_to_cell       :  2570        8.19s   0.256%  ------ ||
|| properties_calculate                 :     1       12.88s   0.403%  ------ ||
|| ngwf_gradient_batch                  :    12       17.60s   0.551%  ------ ||
|| ngwf_gradient_lnv                    :    12       18.96s   0.593%  ------ ||
|| hamiltonian_energy_components        :     3       40.74s   1.275%  ------ ||
|| potential_apply_to_ngwf_batch        :   131       68.47s   2.143%  ------ ||
|| integrals_locpot_dbl_grid            :   131       68.73s   2.151%  ------ ||
|| penalty_denskernel_optimise_cg       :     1       85.64s   2.680%  ------ ||
|| fourier_apply_box                    :  8816      119.21s   3.731%   5.248 ||
|| density_fftbox_interpolate_multiply  :  2570      122.82s   3.844%  ------ ||
|| density_batch_interp_deposit         :   257      132.84s   4.157%  ------ ||
|| density_on_dbl_grid                  :   257      146.77s   4.593%  ------ ||
|| hartree_on_grid                      :   257      480.14s  15.026%  ------ ||
|| fourier_apply_cell_backward          :  1286      952.84s  29.820%   1.506 ||
|| fourier_apply_cell_forward           :  1286     1419.25s  44.416%   1.011 ||
|| xc_energy_potential                  :   257     2367.26s  74.085%  ------ ||
|| lnv_denskernel_optimise_cg           :    12     2873.99s  89.944%  ------ ||
|| ngwf_cg_optimise                     :     1     3078.01s  96.329%  ------ ||
|| total_time                           :     1     3195.32s 100.000%  ------ ||
================================================================================
Overhead of generating timer report: 
- 0 ms averaging over threads,
- 0 ms ensuring consistency across MPI ranks,
- 0 ms printing in order.

Job completed: 09-03-2015 23:12 (-0000)

