 +---------------------------------------------------------------+
 |                                                               |
 |        ####### #     # ####### ####### ####### ######         |
 |        #     # ##    # #          #    #       #     #        |
 |        #     # # #   # #          #    #       #     #        |
 |        #     # #  #  # #####      #    #####   ######         |
 |        #     # #   # # #          #    #       #              |
 |        #     # #    ## #          #    #       #              |
 |        ####### #     # #######    #    ####### #              |
 |                                                               |
 |        Linear-Scaling Ab Initio Total Energy Program          |
 |                                                               |
 |          Release for academic collaborators of ODG            |
 |                                             Version 3.5.9.8   |
 |                                                               |
 +---------------------------------------------------------------+
 |                                                               |
 |  Authors:                                                     |
 |  Jacek Dziedzic, Peter D. Haynes, Nicholas D. M. Hine,        |
 |  Arash. A. Mostofi, Mike C. Payne and Chris-Kriton Skylaris   |
 |                                                               |
 |  Contributors:                                                |
 |  J. Aarons, L. Andrinopoulos, P. W. Avraam, R. A. Bell,       |
 |  S. J. Clark, G. C. Constantinescu, F. Corsetti, N. Corsini,  |
 |  O. Dieguez, S. M. M. Dubois,  H. H. Helal,                   |
 |  Q. O. Hill, L. P. Lee, J.-H. Li, D. D. O`Regan,              |
 |  M. J. S. Phipps, C. J. Pickard, M. I. J. Probert,            |
 |  L. Ratcliff, M. Robinson, A. Ruiz Serrano, J. S. Spencer,    |
 |  G. Teobaldi, V. Vitale, K. A. Wilkinson and                  |
 |  T. J. Zuehlsdorff                                            |
 |                                                               |
 |                                   Copyright (c) 2004-2014     |
 |                                                               |
 |  Please cite:                                                 |
 |  "Introducing ONETEP: Linear-scaling density functional       |
 |   simulations on parallel computers".                         |
 |   C.-K. Skylaris, P. D. Haynes, A. A. Mostofi, M. C. Payne.   |
 |   J. Chem. Phys. 122 084119 (2005).                           |
 |                                                               |
 |          in all publications arising from your use of ONETEP. |
 |                                                               |
 +---------------------------------------------------------------+
 |                                                               |
 |   ONETEP is based on developments described in the following  |
 |   publications:                                               |
 |                                                               |
 |  "Nonorthogonal generalized Wannier function pseudopotential  |
 |   plane-wave method".                                         |
 |   C.-K. Skylaris, A. A. Mostofi, P. D. Haynes, O. Dieguez,    |
 |   M. C. Payne.                                                |
 |   Phys. Rev. B 66 035119 (2002).                              |
 |                                                               |
 |  "Preconditioned iterative minimization for linear-scaling    |
 |   electronic structure calculations".                         |
 |   A. A. Mostofi, P. D. Haynes, C.-K. Skylaris, M. C. Payne.   |
 |   J. Chem. Phys. 119(17), pp.8842-8848 (2003).                |
 |                                                               |
 |  "Total-energy calculations on a real space grid with         |
 |   localized functions and a plane-wave basis".                |
 |   A. A. Mostofi, C.-K. Skylaris, P. D. Haynes, M. C. Payne.   |
 |   Comput. Phys. Commun. 147, pp.788-802 (2002).               |
 |                                                               |
 |  "Accurate kinetic energy evaluation in electronic structure  |
 |   calculations with localized functions on real space grids"  |
 |   C.-K. Skylaris, A. A. Mostofi, P. D. Haynes, C. J. Pickard, |
 |   M. C. Payne.                                                |
 |   Comput. Phys. Commun. 140, pp.315-322 (2001).               |
 |                                                               |
 |  "Accurate ionic forces and geometry optimization in linear-  |
 |   scaling density-functional theory with local orbitals"      |
 |   N. D. M. Hine, M. Robinson, P. D. Haynes, C.-K. Skylaris,   |
 |   M. C. Payne, and A. A. Mostofi.                             |
 |   Phys. Rev. B 83 195102 (2011).                              |
 |                                                               |
 +---------------------------------------------------------------+

Job started: 09-03-2015 16:49 (-0000)
 
If your calculation crashes here, before "Reading parameters..."
is displayed, then your stack size is insufficient.
If so, use "ulimit -s unlimited" at runtime.

Reading parameters from file "water.dat" ...... done
Running on     3 processors.
There are   3 MPI processes running on the same node as the root process.
Each MPI process is using: 
             1 threads for simulation cell FFTs.
             1 threads for parallel FFT box operations.
             1 threads for loops over batched FFT box operations.
             1 threads in other parallel regions.
 
Reading geometry and species blocks from file "water.dat" ...    
  Number of PPD points along a3 set to 1 from input file.
... done
-------------------------------------------------------------------------------
---------------------------- RUN-TIME PARAMETERS ------------------------------
-------------------------------------------------------------------------------
task                         : SINGLEPOINT *! Type of calculation (String)      
cutoffenergy                 : 9.18724855613305      hartree *! Plane wave kine 
kernelcutoff                 : 1000.00000000000      bohr *! Density kernel rad 
xcfunctional                 : PBE *! Exchange-correlation functional (String)  
libxcxfuncid                 : 0 *! Functional identifier for which exchange fu 
libxccfuncid                 : 0 *! Functional identifier for which correlation 
charge                       : 0.000000000000000E+000 *! The total charge of th 
spin                         : 0 *! Total spin of system (Integer)              
spinpolarized                : F *! Switch for spin polarisation (Boolean)      
spinpolarised                : F *! Switch for spin polarisation (Boolean)      
constantefield               : 0.0000000000     0.0000000000     0.0000000000 * 
fftboxpref                   : 0 0 0 *! Preferred FFT box dimensions (String)   
ppdnpoints                   : 0 0 1 *! PPD edge length in grid points for each 
psincspacing                 : 0.0 0.0 0.0 *! PSINC grid spacing in atomic unit 
oldinput                     : F *! Read old-format input file (Boolean)        
develcode                    : *! For development code only (String)            
positionsxyzfile             : *! .xyz file to read positional data from (Strin 
positionsintermediatexyzfile : *! .xyz file to read positional data for interme 
positionsproductxyzfile      : *! .xyz file to read positional data for product 
nnho                         : F *! Initialise NGWFs to nonorthogonal natural h 
ngwfhalo                     : -1.00000000000000      bohr *! Halo extension to 
nonscforces                  : T *! Include non self-consistent forces due to N 
externalpressure             : 0.000000000000000E+000 ha/bohr**3 *! External ap 
smoothingfactor              : 5.00000000000000 *! Smoothing factor in volume t 
isosurfacecutoff             : 5.000000000000000E-004 *! Isosurface cutoff in v 
maxitpalsermano              : 50 *! Maximum number of iterations for Palser-Ma 
maxitkernelocccheck          : 0 *! Maximum number of kernel resets after occup 
maxitpen                     : 3 *! Max number of penalty functional iterations 
penparam                     : 4.00000000000000 *! Penalty functional parameter 
minitlnv                     : 10 *! Min number of LNV iterations (Integer)     
maxitlnv                     : 10 *! Max number of LNV iterations (Integer)     
lnvthresholdorig             : 1.000000000000000E-009 *! LNV convergence thresh 
lnvcgtype                    : LNV_FLETCHER *! Type of CG coefficient for LNV d 
lnvcgmaxstep                 : 3.00000000000000 *! Maximum length of trial step 
exactlnv                     : T *! Use original LNV algorithm (Boolean)        
oldlnv                       : F *! Use LNV algorithm backwards compatible pre  
lnvchecktrialsteps           : T *! Check stability of kernel at each trial ste 
kerfix                       : 1 *! Density kernel fixing approach (Integer)    
maxitkernelfix               : 3 *! Maximum # iterations of Penalty Functional  
initialdensrealspace         : T *! Construct initial density in real space fro 
kerneldiissize               : 10 *! Max number of kernels saved during kernel  
kerneldiismaxit              : 25 *! Max number of kernel DIIS iterations (Inte 
kerneldiisthreshold          : 1.000000000000000E-009 *! Density mixing converg 
kerneldiislineariter         : 5 *! Number of linear mixing iterations (Integer 
kerneldiiscoeff              : 0.100000000000000 *! Coefficient for the input k 
kerneldiisconvcriteria       : 1000 *! Density mixing convergence criteria (Str 
kerneldiislshift             : 1.00000000000000      hartree *! The initial val 
kerneldiislsiter             : 0 *! Maximum Level shifting iteration (Integer)  
kerneldiisscheme             : NONE *! Select scheme for kernel-diis (String)   
edft                         : F *! Use Ensemble-DFT method to optimise the ker 
edftmaxit                    : 10 *! Maximum number of EDFT iterations to optim 
edftmaxstep                  : 1.00000000000000 *! Maximum step during EDFT lin 
edftsmearingwidth            : 3.166811429000000E-003 hartree *! Occupancy smea 
edftfreeenergythres          : 1.000000000000000E-006 hartree *! Convergence th 
edftenergythres              : 1.000000000000000E-004 hartree *! Convergence th 
edftentropythres             : 1.000000000000000E-004 hartree *! Convergence th 
edftrmsgradientthres         : 1.000000000000000E-004 *! Convergence threshold  
edftcommutatorthres          : 1.000000000000000E-005 hartree *! Convergence th 
edftfermithres               : 1.000000000000000E-003 hartree *! Convergence th 
edftwriteocc                 : F *! Generate file with smeared occupancies (Boo 
edftextrabands               : -1 *! Number of additional MOs with non-zero occ 
eigensolverorfac             : 1.000000000000000E-004 *! Precision to which the 
eigensolverabstol            : 1.000000000000000E-009 *! Precision to which the 
writehamiltonian             : F *! Save current Hamiltonian matrix in a file ( 
readhamiltonian              : F *! Read current Hamiltonian matrix from a file 
ngwfcgrotate                 : F *! Rotate density kernel during NGWF optimizat 
edftroundevals               : -1 *! Round EDFT eigenvalues to N decimal figure 
maxitngwfcg                  : 100 *! Max number of NGWF conjugate gradients (C 
ngwfcgtype                   : NGWF_FLETCHER *! Type of CG coefficient for NGWF 
ngwfcgmaxstep                : -8.00000000000000 *! Maximum length of trial ste 
eleccgmax                    : 3 *! Number of NGWF iterations to reset CG (Inte 
precondscheme                : TETER *! Recip-space preconditioning scheme (Str 
kzero                        : 3.00000000000000      1/bohr *! KE preconditioni 
rprecond                     : 2.00000000000000      bohr *! Radial cut-off for 
precondrecip                 : T *! Recip-space KE preconditioning (Boolean)    
precondreal                  : F *! Real-space KE preconditioning (Boolean)     
smoothscheme                 : NONE *! Smoothing scheme for the NGWF gradients  
rsmooth                      : 1.50000000000000      bohr *! Radius of the unsh 
ksmooth                      : 5.00000000000000      1/bohr *! Characteristic w 
occmix                       : 0.250000000000000 *! Mix fraction of occupancy p 
kernelupdate                 : F *! Update density kernel during NGWF line sear 
kernelchristoffelupdate      : F *! Update density kernel during NGWF line sear 
maxithotelling               : 100 *! Number of Hotelling iteration per NGWF ch 
maxresidhotelling            : 1.000000000000000E-012 *! Max allowed value in H 
rmskernelmeasure             : F *! Use root mean squared measure of [K,H] comm 
maxitngwfdiis                : 0 *! Max number of NGWF DIIS steps (Integer)     
ngwfdiissize                 : 4 *! Max size of the DIIS iterative subspace (In 
ngwfdiisreset                : 8 *! Max number of iteration for the resetting o 
ngwfdiismaxstep              : 2.00000000000000 *! Max length of trial step for 
ngwfthresholdorig            : 1.837500000000000E-006 *! NGWF convergence thres 
elecenergytol                : 3.674899422453221E-005 hartree *! Tolerance on t 
elecforcetol                 : -1.000000000000000E-003 ha/bohr *! Tolerance on  
ngwfmaxgrad                  : -2.000000000000000E-005 *! Maximum permissible v 
deltaeconv                   : T *! Use consecutive energy gains as a criterion 
kernelforceconv              : F *! Force density kernel convergence on last NG 
fftboxbatchsize              : 16 *! Number of NGWFs in fftbox batches (Integer 
densethreshold               : 0.400000000000000 *! Threshold for matrix segmen 
commsgroupsize               : -1 *! Number of nodes in a group (determines com 
ovlpfornonlocal              : F *! Overlap sparsity for nonlocal (Boolean)     
usespacefillingcurve         : T *! Re-arrange atoms according to space-filling 
corehamdenskernguess         : T *! Initial guess for density kernel from core  
checkatoms                   : T *! Check atoms on top of each other (Boolean)  
locpotscheme                 : FULL *! Scheme for evaluating local potential ma 
smoothprojectors             : -0.400000000000000 *! Halfwidth of Gaussian filt 
smoothlocpspot               : -0.400000000000000 *! Halfwidth of Gaussian filt 
oddpsincgrid                 : F *! Force odd number of points in simcell psinc 
evenpsincgrid                : F *! Force even number of points in simcell psin 
realspaceprojectors          : F *! Whether to evaluate and store projectors in 
projectorsprecalculate       : T *! Whether to pre-calculate the nonlocal proje 
outputdetail                 : VERBOSE *! Level of output detail (String)       
pawoutputdetail              : DEFAULT *! Level of output detail for PAW: BRIEF 
mdoutputdetail               : DEFAULT *! Level of output detail for MD: BRIEF, 
timingslevel                 : 1 *! Level of timings output: 0(none) 1(nodes su 
timingsorder                 : TIME *! Sorting order of timings (String)        
runtime                      : -1.00000000000000 *! The maximum allocated run t 
writeparams                  : T *! Output runtime parameters at startup (Boole 
esdfdump                     : T *! Dump all runtime parameters at startup (Boo 
writeforces                  : T *! Write ionic forces (Boolean)                
writepositions               : T *! Write ionic positions each geometry or MD s 
writevelocities              : F *! Write ionic velocities each MD step (Boolea 
writexyz                     : F *! Output coordinates in .xyz file (Boolean)   
printqc                      : F *! Print Quality Control information (Boolean) 
cubeformat                   : T *! Allow .cube format for plot outputs (Boolea 
dxformat                     : F *! Allow .dx format for plot outputs (Boolean) 
dxformatcoarse               : F *! Output only points on the coarse grid (Bool 
dxformatdigits               : 7 *! Number of significant digits in .dx output  
grdformat                    : F *! Allow .grd format for plot outputs (Boolean 
writedensityplot             : F *! Write the charge density in plotting format 
writepolarisationplot        : F *! Write the polarisation density in plotting  
writengwfplot                : F *! Write NGWFs in plotting format (Boolean)    
writengwfgradplot            : F *! Write NGWF Gradients in plotting format (Bo 
writengwfradial              : 0 *! Write NGWFs radial distributions (Integer)  
writengwfgradradial          : 0 *! Write NGWFs gradients radial distributions  
writeradialstep              : 5.000000000000000E-003 bohr *! Define the grid s 
writeradialsmear             : 1.000000000000000E-002 bohr *! Define the gaussi 
writeinitialradialngwfs      : F *! Controls output of radial NGWF plots from a 
readdenskern                 : F *! Read density kernel restart information (Bo 
writedenskern                : T *! Write density kernel restart information (B 
readtightboxngwfs            : F *! Read in universal tightbox NGWFs restart in 
writetightboxngwfs           : T *! Write in universal tightbox NGWFs restart i 
writeconvergeddkngwfs        : F *! Only write Density Kernel and NGWFs upon co 
readswngwfs                  : F *! Read NGWFs restart information in spherical 
writeswngwfs                 : F *! Write NGWFs restart information in spherica 
writemaxl                    : 3 *! Maximum angular momentum number when writin 
readmaxl                     : 3 *! Maximum angular momentum number when readin 
extransw                     : 0 *! Maximum number of zeros of the sph Bessel f 
paw                          : F *! Uses a PAW construction to find correct cor 
finegridscale                : 2.00000000000000 *! Ratio of size of fine grid t 
dblgridscale                 : 2.00000000000000 *! Ratio of charge density / po 
augfuncsrecip                : T *! Construct Augmentation functions in recip s 
pseudopath                   : *! Path to pseudopotentials (String)             
dispersion                   : 0 *! Select dispersion correction (String)       
vdwdcoeff                    : -1.00000000000000 *! Replacement VDW damping coe 
hubbardmaxiter               : 10 *! Maximum number of DFT+U projector optimisa 
hubbardenergytol             : 1.000000000000000E-008 hartree *! Energy toleran 
hubbardconvwin               : 2 *! Energy convergence window when using DFT+U  
hubbardprojmixing            : 0.000000000000000E+000 *! Proportion of old Hubb 
hubbardfunctional            : 1 *! DFT+U energy functional to use (Integer)    
hubbardtensorcorr            : 1 *! DFT+U projector tensorial correction to use 
hubbardngwfspinthreshold     : 2.000000000000000E-005 *! NGWF RMS  gradient thr 
hubbardscfonthefly           : F *! Carry out on-the-fly HUBBARDSCF with new pr 
hubbardreadprojectors        : F *! Logical to read Hubbard-projectors from fil 
cdftatomcharge               : F *! Perform an ATOM-CHARGE-constrained CDFT sim 
cdftatomspin                 : F *! Perform an ATOM-SPIN-constrained CDFT simul 
cdftgroupchargediff          : F *! Perform a GROUP-CHARGE-DIFFERENCE-constrain 
cdftgroupspindiff            : F *! Perform a GROUP-SPIN-DIFFERENCE-constrained 
cdftgroupchargeacceptor      : F *! Perform an ACCEPTOR GROUP-CHARGE-constraine 
cdftgroupchargedonor         : F *! Perform a DONOR GROUP-CHARGE-constrained CD 
cdftgroupspinacceptor        : F *! Perform an ACCEPTOR GROUP-SPIN-constrained  
cdftgroupspindonor           : F *! Perform a DONOR GROUP-SPIN-constrained CDFT 
cdfthubbard                  : F *! Perform a constrained-DFT+U simulation (Boo 
cicdft                       : F *! Perform a CONFIGURATION-INTERACTION CDFT si 
cdftprintallocc              : F *! Logical to have the occupancy-matrix of all 
cdftreadprojectors           : F *! Logical to read cDFT-projectors from file ( 
cdftgroupchargeuponly        : F *! Logical to constrain only UP electrons (Boo 
cdftgroupchargedownonly      : F *! Logical to constrain only UP electrons (Boo 
cdftmultiproj                : F *! Logical to use mutiple angular-momentum pro 
cicdftnumconf                : 0 *! Number of cDFT-configurations for CI_CDFT s 
cdftgroupchargedifftarget    : 0.000000000000000E+000 *! Targeted CHARGE differ 
cdftgroupspindifftarget      : 0.000000000000000E+000 *! Targeted SPIN differen 
cdftchargeacceptortarget     : 0.000000000000000E+000 *! Targeted group-CHARGE  
cdftchargedonortarget        : 0.000000000000000E+000 *! Targeted group-CHARGE  
cdftspinacceptortarget       : 0.000000000000000E+000 *! Targeted group-SPIN fo 
cdftspindonortarget          : 0.000000000000000E+000 *! Targeted group-SPIN fo 
maxitcdftucg                 : 60 *! Max number of cdFT-U conjugate gradients ( 
cdftcgtype                   : NGWF_FLETCHER *! Type of CG coefficient for CDFT 
cdftcgthreshold              : 1.000000000000000E-003 *! RMS gradient convergen 
cdfttriallength              : 0.100000000000000 *! Trial length for cDFT line- 
cdftcgmax                    : 5 *! Number of U-opt iterations to reset CG (Int 
cdftmaxgrad                  : 1.000000000000000E-003 *! Maximum permissible va 
cdftelecenergytol            : -1.000000000000000E-004 hartree *! Tolerance on  
cdftcgmaxstep                : 50.0000000000000 *! Maximum length of trial step 
cdftguru                     : F *! Let the user signal she/he does not need he 
cdftcontinuation             : F *! Logical to restart (from the *.cdft file) a 
cdfttight                    : F *! Logical to activate tight NGWFs-cDFT optimi 
cdftwritepotentials          : T *! Logical to write cDFT-potentials into file  
coulombcutoffradius          : 0.000000000000000E+000 bohr *! Radius of sphere  
coulombcutofflength          : 0.000000000000000E+000 bohr *! Length of cylinde 
coulombcutofftype            : NONE *! Type of cutoff coulomb interaction: NONE 
coulombcutoffwriteint        : F *! Write real-space cutoff Coulomb interaction 
pbccorrectioncutoff          : 0.000000000000000E+000 bohr *! alpha*L cutoff pa 
doproperties                 : T *! Allow calculation of properties (Boolean)   
numeigenvalues               : 6 *! Number of energy and occupancy eigenvalues  
homodensplot                 : -1 *! Number of squared MOs to plot from HOMO an 
lumodensplot                 : -1 *! Number of squared MOs to plot from LUMO an 
homoplot                     : -1 *! Number of MOs to plot from HOMO and lower  
lumoplot                     : -1 *! Number of MOs to plot from LUMO and higher 
dossmear                     : 3.674899422453221E-003 hartree *! Half width of  
ldossmear                    : 3.674932438755288E-003 hartree *! Lorentzian bro 
popncalculate                : F *! Allow population analysis (Boolean)         
popnbondcutoff               : 5.66917840375065      bohr *! Bond length cutoff 
ngwfanalysis                 : F *! Perform NGWF analysis (Boolean)             
polarisationcalculate        : F *! Allow calculation of polarisation (Boolean) 
spreadcalculate              : F *! Calculate spread of NGWFs (Boolean)         
anharmoniccalculate          : F *! Active the calculation of the IR spectrum ( 
geommodulusest               : 1.700000000000000E-002 ha/bohr**3 *! The estimat 
geomfrequencyest             : 7.600000000000000E-003 hartree *! The estimated  
geomenergytol                : 3.674899422453221E-007 hartree *! Geometry optim 
geomforcetol                 : 5.834023153688738E-004 ha/bohr *! Geometry optim 
geomdisptol                  : 1.889726877774356E-003 bohr *! Geometry optimiza 
geommaxiter                  : 100 *! Maximum number of geometry optimization i 
geomconvergencewin           : 2 *! Geometry optimization convergence tolerance 
geomcontinuation             : F *! Read information for continuation of a prev 
geombackupiter               : 1 *! Number of geometry optimisation iterations  
geomresetdkngwfsiter         : 6 *! Number of geom iterations between resets of 
geomlbfgsmaxupdates          : 30 *! Number of LBFGS update vectors to store (I 
geomlbfgsblocklength         : 30 *! How many updates to store before reallocat 
geomreusedkngwfs             : T *! Re-use density kernel and NGWFs during geom 
geomprintinvhessian          : F *! Write inverse Hessian to standard output (B 
geommethod                   : CARTESIAN *! Method for geometry optimization (S 
geomlbfgs                    : F *! Whether to perform LBFGS rather than BFGS i 
tssearchmethod               : LSTQST *! Specifies method to be used for TS sea 
tssearchlstqstprotocol       : LSTMAXIMUM *! Specifies LSTQST protocol (String) 
tssearchqstmaxiter           : 5 *! Specifies maximum number of QST steps (Inte 
tssearchcgmaxiter            : 20 *! Specifies maximum number of CG steps (Inte 
tssearchforcetol             : 5.000000000000000E-003 ha/bohr *! Force toleranc 
tssearchdisptol              : 1.000000000000000E-002 bohr *! Displacement tole 
mdproperties                 : F *! Compute vibrational and IR spectra from MD  
mdrestart                    : F *! Restart MD from backup files (Boolean)      
mddeltat                     : 40.0000000000000      aut *! Molecular dynamics  
mdnumiter                    : 100 *! Maximum number of molecular dynamics iter 
mdresethistory               : 100 *! Reset mixing scheme for initial guess of  
mtsxi                        : F *! Internal thermostat in the multiple time-st 
mtsnstep                     : 1 *! Number of time steps in the multiple time-s 
mtsngwfthreshold             : 5.000000000000000E-004 *! NGWF convergence thres 
mtslnvthreshold              : 5.000000000000000E-006 *! LNV convergence thresh 
mtselecenergytol             : -1.000000000000000E-003 hartree *! Tolerance on  
mtselecforcetol              : -1.000000000000000E-003 ha/bohr *! Tolerance on  
mtsngwfmaxgrad               : -2.000000000000000E-005 *! Maximum permissible v 
mtsmaxitngwfcg               : 50 *! Max number of conjugate gradients iteratio 
mtsminitlnv                  : 5 *! Min number of LNV iterations (Integer)      
mtsmaxitlnv                  : 5 *! Max number of LNV iterations (Integer)      
mtsmaxitpen                  : 3 *! Max number of penalty iterations (Integer)  
mtsmixinc                    : F *! Include the mts correction step in the NGWF 
mixdkntype                   : NONE *! Type of mixing used to build new guess f 
mixdknnum                    : 0 *! Number of coefficients used to build new gu 
mixdkninittype               : NONE *! Type of initialization before MIX_DKN_TY 
mixdkninitnum                : 0 *! Number of steps before extrapolation of the 
mixdknreset                  : 50 *! Number of extrapolation steps between two  
mixngwfstype                 : NONE *! Type of mixing used to build new guess f 
mixngwfsnum                  : 0 *! Number of coefficients used to build new gu 
mixngwfsinittype             : NONE *! Type of initialization before MIX_DKN_TY 
mixngwfsinitnum              : 0 *! Number of steps before extrapolation of the 
mixngwfsreset                : 50 *! Number of extrapolation steps between two  
mixngwfscoeff                : 0.100000000000000 *! Mix the propagated NGWFs wi 
mixlocallength               : 10.0000000000000      bohr *! Max radius for loc 
mixlocalsmear                : 5.00000000000000      bohr *! Radial smearing fo 
condreaddenskern             : F *! Read in conduction density kernel (Boolean) 
condreadtightboxngwfs        : F *! Read in universal tightbox conduction NGWFs 
condfixedshift               : F *! Fixed projected conduction Hamiltonian shif 
condcalcmaxeigen             : T *! Calculate maximum conduction Hamiltonian ei 
condnumstates                : 0 *! Number of conduction states to be optimised 
condmaxitlnv                 : 10 *! Max number of LNV iterations during conduc 
condminitlnv                 : 10 *! Min number of LNV iterations during conduc 
condkernelcutoff             : 1000.00000000000      bohr *! Conduction density 
condinitshift                : 0.000000000000000E+000 hartree *! Initial shifti 
condshiftbuffer              : 0.100000000000000      hartree *! Additional buf 
condnumextrastates           : 0 *! Number of extra conduction states for initi 
condnumextraits              : 0 *! Number of NGWF iterations with extra conduc 
condplotjointorbitals        : T *! Plot orbitals in the joint basis following  
condplotvcorbitals           : T *! Plot orbitals in the val and cond NGWF basi 
condcalcopticalspectra       : F *! Calculate matrix elements for optical absor 
condspeccalcmommatels        : T *! Calculate momentum matrix elements (default 
condspeccalcnonloccomm       : T *! Calculate nonlocal commutator for momentum  
condspeccontderiv            : T *! Calculate non-local commuator using continu 
condspecnonloccommshift      : 1.000000000000000E-004 *! Finite difference shif 
condspecprintmatels          : F *! Write optical matrix elements to file (Bool 
condspecoptsmear             : 3.674932438755288E-003 hartree *! Half width of  
condspecscissorop            : 0.000000000000000E+000 hartree *! Scissor operat 
condcalceels                 : F *! Calculate matrix elements for electron ener 
lrtddftcalculate             : F *! enables LR-TDDFT calculation (Boolean)      
lrtddftnumstates             : 1 *! Sets the number of excitation energies we w 
lrtddftcgthreshold           : 1.000000000000000E-006 *! sets convergence toler 
lrtddftpenaltytol            : 1.000000000000000E-008 *! sets the convergence t 
lrtddftmaxitpen              : 20 *! sets the maximum number of iterations for  
lrtddftmaxitcg               : 60 *! sets the maximum number of iterations for  
lrtddftresetcg               : 100 *! sets the number of iterations after which 
lrtddftkernelcutoff          : 1000.00000000000      bohr *! sets cutoff on the 
lrtddftwritedensities        : T *!Determines whether to write out TDDFT respon 
lrtddftwritekernels          : F *! writes out response kernels after each iter 
lrtddftrestart               : F *! Restart flag for the LR_TDDFT option (Boole 
lrtddfttriplet               : F *! DEtermines if triplet states are calculated 
lrtddftprojector             : T *! Use projector onto unoccupied subspace (Boo 
lrtddftjointset              : T *! Use joint set to represent cond states (Boo 
lrtddftpreopt                : T *! Refine starting guess in preoptimisation ro 
lrtddftpreoptiter            : 20 *! Number of preoptimisation iterations (Inte 
lrtddftanalysis              : F *! Do a full O(N^3) analysis of TDDFT transiti 
etransbulk                   : F *! Compute electronic transport coefficients ( 
etranslcr                    : F *! Compute electronic transport coefficients ( 
etranssameleads              : F *! Use same description for all leads (Boolean 
etranswritehs                : F *! Write hamiltonian corresponding to transpor 
etransecmplx                 : 1.000000000000000E-006 hartree *! Imaginary part 
etransemax                   : 0.200000000000000      hartree *! Highest energy 
etransemin                   : -0.200000000000000      hartree *! Lowest energy 
etransenum                   : 50 *! Number of energy points for the calculatio 
etranseref                   : 0.000000000000000E+000 hartree *! Reference ener 
etranserefmethod             : DIAG *! The method used to determine the referen 
etranscalculateleadmu        : F *! Calculate the lead chemical potentials (Boo 
etransleadnkpoints           : 32 *! Number of kpoints to use to determine lead 
etransleaddisptol            : 1.00000000000000      bohr *! The maximum accept 
anhqcfactor                  : HARMONIC *! Quantum correction factor in IR spec 
anhacffactor                 : NONE *! Prefactor for the autocorrelation functi 
anhtype                      : IR_CALCULATION *! Describe the type of calculati 
anhfirstiter                 : 0 *! First md iteration to include in the autoco 
anhlastiter                  : 0 *! Last md iteration to include in the autocor 
anhmdtemp                    : 0.000000000000000E+000 kelvin *! Temperature in  
anhplotfirstfreq             : 0.000000000000000E+000 1/cm *! First freq to be  
anhplotlastfreq              : 0.000000000000000E+000 1/cm *! Last freq to be s 
anhplotall                   : F *! Plot the whole IR spectrum (Boolean)        
anhapplyfilter               : F *! Apply the gaussian filter (Boolean)         
phononfarmingtask            : 0 *! Operation to perform for phonon calc (for t 
phononsampling               : 1 *! Default number of sampling points for finit 
phononvibfree                : 7 *! Default allowed vibrational degrees of free 
phononfinitedisp             : 0.100000000000000      bohr *! Amplitude of the  
phononfmax                   : 5.000000000000000E-003 ha/bohr *! Maximum force  
phononenergycheck            : F *! Check total energy of system doesn't decrea 
phonontmin                   : 0.000000000000000E+000 hartree *! Lower bound of 
phonontmax                   : 2.000000000000000E-003 hartree *! Upper bound of 
phonondeltat                 : 1.500000000000000E-005 hartree *! Temperature st 
phononminfreq                : 3.600000000000000E-006 hartree *! Discard phonon 
phononwriteeigenvecs         : F *! Write phonon mode eigenvectors to file (Boo 
phononanimatescale           : 1.00000000000000 *! Scaling factor for phonon mo 
phonondosmin                 : 0.000000000000000E+000 *! Lower bound of frequen 
phonondosmax                 : 1000.00000000000 *! Upper bound of frequency ran 
phonondosdelta               : 10.0000000000000 *! Frequency step (in cm^-1) fo 
phonondos                    : T *! Calculate phonon DOS from MP grid and write 
phononsk                     : F *! Use Slater-Koster style interpolation for q 
bskpointpathspacing          : 0.188972700000000      1/bohr *! K-point spacing 
bsnumeigenvalues             : -1 *! Num of energy and occ. eigenvalues to prin 
bsunfold                     : 0 0 0 *! Number of times to unfold Brillouin zon 
bsmethod                     : TB *! Method to use: 'KP' or 'TB' (String)       
dotddft                      : F *! Allow Time-Dependent DFT calculation (Boole 
tddftmaximumenergy           : 1.00000000000000      hartree *! Desired maximum 
tddftresolution              : 1.000000000000000E-003 hartree *! Desired resolu 
tddftpropagationmethod       : CRANKNICHOLSON *! Method used to integrate von N 
tddftsparsitylevel           : 0 *! Matrix sparsity when computing propagators  
tddfttammdancoff             : F *! Invoke Tamm-Dancoff decoupling approximatio 
tddftdipolekickstrength      : 0.0 0.0 0.0 *! Maximum allowed phase shift in TD 
tddftxcfunctional            : LDA *! Exchange-correlation functional for TDDFT 
tddfthamiltonianmixing       : 0 *! Order of polynomial extrapolation to H(t +  
tddftdamping                 : 0.000000000000000E+000 hartree *! Energy smearin 
tddftenforcedidempotency     : F *! Project out at each timestep that part of c 
tddftmaxithotelling          : 50 *! Number of Hotelling iteration per propagat 
tddftmaxresidhotelling       : 1.000000000000000E-018 *! Max allowed value in H 
tddftinvoverlapexact         : T *! Renew inverse overlap with O N^3 algorithm  
isimplicitsolvent            : F *! Use implicit solvent? (Boolean)             
issmearedionrep              : F *! Implicit solvent: use smeared ions for elec 
isseparaterestartfiles       : F *! If true, dielectric cavity will be construc 
isautosolvation              : F *! If true, vacuum calculation will automatica 
isincludecavitation          : F *! Implicit solvent: include cavitation energy 
isdensitythreshold           : 7.800000000000000E-004 *! Implicit solvent: rho_ 
issolvationbeta              : 1.30000000000000 *! Implicit solvent: beta param 
isbulkpermittivity           : 1.00000000000000 *! Implicit solvent: eps_inf pa 
ismultigriddefecterrortol    : 1.000000000000000E-002 *! Implicit solvent: stop 
ismultigriderrortol          : 1.000000000000000E-005 *! Implicit solvent: stop 
issmearedionwidth            : 0.800000000000000      bohr *! Implicit solvent: 
iscorewidth                  : 1.20000000000000      bohr *! Implicit solvent:  
issurfacethickness           : 2.000000000000000E-004 *! Implicit solvent: thic 
issolventsurfacetension      : 4.762400000000000E-005 ha/bohr**2 *! Implicit so 
ismultigridmaxiters          : 100 *! Implicit solvent: max number of iteration 
ismultigridnlevels           : 4 *! Implicit solvent: number of levels in multi 
isdiscretizationorder        : 8 *! Implicit solvent: discretization order (2nd 
isbccoarseness               : 5 *! Open BCs: controls boundary condition coars 
isbcsurfacecoarseness        : 1 *! Open BCs: controls boundary condition coars 
isbcthreshold                : 1.000000000000000E-009 *! Open BCs: controls bou 
ischecksolvenergygrad        : F *! Implicit solvent: sanity check the energy g 
issolvationmethod            : DIRECT *! Implicit solvent: direct or corrective 
isdielectricmodel            : FIX_INITIAL *! Implicit solvent: how the cavity  
isdielectricfunction         : FGF *! Implicit solvent: how the cavity is deter 
issolvationoutputdetail      : NONE *! Implicit solvent: controls extra output  
openbcionion                 : F *! Force open BCs in ion-ion energy (Boolean)  
openbchartree                : F *! Force open BCs in Hartree potential (Boolea 
openbcpspot                  : F *! Force open BCs in local pseudopotential (Bo 
openbcpspotfinetunenptsx     : 100000 *! Open BCs in local pseudo, npts_x param 
openbcpspotfinetunealpha     : 0.300000000000000 *! Open BCs in local pseudo, a 
openbcpspotfinetunef         : -1 *! Open BCs in local pseudo, fineness paramet 
hfxintegration               : 2 *! Variant of the numerical pointwise approach 
hfxcutoff                    : 1000.00000000000      bohr *! HFx cutoff radius  
hfxnlppforexchange           : F *! Give exchange matrix same sparsity as non-l 
hfxradialsegments            : 50 *! Number of radial segments in vmatrix evalu 
hfxangularsegments           : 50 *! Number of angular segments in vmatrix eval 
hfxcheborder                 : 16 *! Order for Chebyshev interpolation (Integer 
hfxchebintervals             : 14 *! Number of intervals Chebyshev interpolatio 
hfxchebabatchsize            : 10 *! Number of SW expansions buffered (Integer) 
hfxchebbbatchsize            : 10 *! Number of SW pot expansions buffered (Inte 
hfxmaxl                      : 4 *! Maximum quantum number l used for SW expans 
hfxmaxzeros                  : 10 *! Maximum number of Bessel zeros used for SW 
hfxreadvmatrix               : F *! Read restart information for the V matrix ( 
hfxwritevmatrix              : F *! Write restart information for the V matrix  
hfxreadxmatrix               : F *! Read restart information for the X matrix ( 
hfxwritexmatrix              : F *! Write restart information for the X matrix  
hfxdebug                     : F *! Debug HFx? (Boolean)                        
hfxmetric                    : ELECTROSTATIC *! Electrostatic or overlap metric 
hfxoverlapindirect           : F *! Inversions done for overlap metric (Boolean 
hfximproveinverse            : F *! Use Hotelling improvement when calculating  
hfxcthreshold                : 0.000000000000000E+000 *! Absolute magnitude bel 
hfxcachelimitforsnpos        : 1024 *! Max cache size for SWOP-NGWF-product ove 
hfxcachelimitforswops        : 1024 *! Max cache size for SWs or SWpots in PPDs 
hfxcachelimitforwmats        : 1024 *! Max cache size for W-matrices (in MiB) ( 
hfxcachelimitforexpansions   : 1024 *! Max cache size for expansions (tb_swpot_ 
hfxcachelimitforps           : 1024 *! Max cache size for p_beta_delta (in MiB) 
hfxcachelimitforngwfs        : 256 *! Max cache size for remote NGWFs (in MiB)  
hfxcachelimitfordknblks      : 50 *! Max cache size for remote DKN blocks (in M 
zerototalforce               : T *! Subtract avg force to ensure Newton's 3rd l 
ddeccalculate                : F *! Performs DDEC charge analysis (Boolean)     
ddecwriterad                 : F *! Write DDEC partial radial density for each  
ddecclassicalhirshfeld       : F *! DDEC range of IH (+/-) ionic reference stat 
ddecradnpts                  : 100 *! Number of spherical shells per atom (Inte 
ddecradrcut                  : 10.0000000000000      bohr *! Radius of largest  
ddecmaxit                    : 2000 *! Maximum number of DDEC iterations (Integ 
ddecconvthreshold            : 2.000000000000000E-005 *! DDEC charge convergenc 
ddecihfraction               : 0.214285714285714 *! DDEC IH fraction (Double Pr 
ddeczerothreshold            : 1.000000000000000E-007 *! DDEC threshold to negl 
ddecihionicrange             : 2 *! DDEC range of IH (+/-) ionic reference stat 
ddecatomsolvemaxit           : 480 *! Maximum number of iterations for the atom 
ddecrcompmaxit               : 50 *! Maximum number of iterations for finding r 
ddectargetradius             : 11.5000000000000      bohr *! DDEC force target  
ddecrcompeconv               : 5.000000000000000E-008 hartree *! Energy converg 
ddecwritercomp               : F *! Write compensated ionic densities for all r 
ddecrefdensinit              : T *! Initialize ISA guess densities as neutral r 
ddecrenormalizerefdens       : F *! Renormalize reference densities (Boolean)   
ddecmultipole                : F *! Compute DDEC dipoles and quadrupoles (Boole 
ddecmoment                   : F *! Compute DDEC moment (Boolean)               
ddecmomentorder              : 1 *! Order of DDEC moment (Integer)              
ddecinterpraddens            : F *! Interpolate converged radial densities for  
ddecavgrad                   : F *! Compute expected radius of each atom based  
ddecminshelldens             : 100.000000000000 *! Minimum number of points per 
ddecrmse                     : F *! Calculate DDEC point charge RMS V(r) (Boole 
writenbo                     : F *! Performs Natural Population Analysis and wr 
nboinitlclowdin              : T *! Performs atom-centered Lowdin symmetric ort 
nbowritelclowdin             : F *! Write a GENNBO FILE.47 containing all the a 
nbowritenpacomp              : F *! Writes individual NAO population into the s 
nboscaledm                   : T *! Scales density matrix in the FILE.47 output 
nbowritedipole               : F *! Writes dipole matrix to FILE.47 (Boolean)   
nboscalespin                 : T *! Whether or not partial density matrices for 
nbopnaoanalysis              : F *! S/P/D/F CHARACTER ANALYSIS ON PNAO. (Boolea 
nboaopnaoscheme              : ORIGINAL *! AO to PNAO scheme to use in generati 
plotnbo                      : F *! Plot NBO's orbitals from FILE.xx as defined 
nboplotorbtype               : *! Type of GENNBO-generated orbital to plot. (St 
threadsmax                   : 1 *! Number of threads in outer loops (Integer)  
threadsnumfftboxes           : 1 *! Number of threads to use in OpenMP-parallel 
threadsperfftbox             : 1 *! Number of nested threads used for FFT box o 
threadspercellfft            : 1 *! Number of threads to use in OpenMP-parallel 
threadsnummkl                : 1 *! Number of threads to use in OpenMP-parallel 
%block positionsabs          : *! Cartesian positions for each atom (Block)     
O 47.82274073160245      47.25667645460973      45.98252560975496               
H 49.02657873213836      46.37388321646128      47.05079896262087               
H 48.98893597357800      48.00111084095992      44.77769116409311               
%endblock positionsabs       : *! Cartesian positions for each atom (Block)     
%block latticecart           : *! The simulation cell lattice vectors (Block)   
94.486315649999995      0.000000000000000       0.000000000000000               
0.000000000000000       94.486315649999995      0.000000000000000               
0.000000000000000       0.000000000000000       94.486315649999995              
%endblock latticecart        : *! The simulation cell lattice vectors (Block)   
%block species               : *! Species information (symbol, atomic number, n 
O O 8 4 6.0                                                                     
H H 1 1 6.0                                                                     
%endblock species            : *! Species information (symbol, atomic number, n 
%block speciespot            : *! Pseudopotential name for each species (Block) 
O O_00PBE_OP.recpot                                                             
H H_00PBE_OP.recpot                                                             
%endblock speciespot         : *! Pseudopotential name for each species (Block) 
%block speciesatomicset      : *! Atomic set name for each species (Block)      
O SOLVE                                                                         
H SOLVE                                                                         
%endblock speciesatomicset   : *! Atomic set name for each species (Block)      
%block speciesconstraints    : *! Ionic constraints for each species (Block)    
O NONE                                                                          
H NONE                                                                          
%endblock speciesconstraints : *! Ionic constraints for each species (Block)    
-------------------------------------------------------------------------------
-------------------------------------------------------------------------------

<<<<<<<<<<<<<<<<<<<<<<<<< Pseudopotential information >>>>>>>>>>>>>>>>>>>>>>>>>
File: O_00PBE_OP.recpot [ 2001 points up to Gmax=  52.9 (1/bohr)]
  Atomic number:  8;  ionic charge:  6.000000
    Shell 1: l = 1; rc = 1.54 bohr
File: H_00PBE_OP.recpot [ 2001 points up to Gmax=  52.9 (1/bohr)]
  Atomic number:  1;  ionic charge:  1.000000
    Local potential
<<<<<<<<<<<<<<<<<<<<<<<<<<<<<<<<<<<<<<< >>>>>>>>>>>>>>>>>>>>>>>>>>>>>>>>>>>>>>>

------------------------- Atom counting information ---------------------------
Symbol    Natoms    Nngwfs    Nprojs
  O          1         4         3
  H          2         2         0
.......   ......    ......    ......
Totals:      3         6         3
-------------------------------------------------------------------------------
 
============================== PSINC grid sizes ================================
                      Simulation cell:  104 x 104 x 104
                              FFT-box:   45 x  45 x  45
                                  PPD:    8 x   8 x   1
Grid space d1=  0.908522265865a0 (KE cutoff=   9.20307Eh = 250.42835eV)
Grid space d2=  0.908522265865a0 (KE cutoff=   9.20307Eh = 250.42835eV)
Grid space d3=  0.908522265865a0 (KE cutoff=   9.20307Eh = 250.42835eV)
================================================================================

********************** Fourier parallelisation information *********************
       Coarse grid (whole simulation cell) dimensions:    104   104   104
          Real-space ('12') slabs/node (min max mean):     34    35    34
         Recip-space ('23') slabs/node (min max mean):     17    18    17
********************************************************************************

********************** Fourier parallelisation information *********************
       Double grid (whole simulation cell) dimensions:    208   208   208
          Real-space ('12') slabs/node (min max mean):     69    70    69
         Recip-space ('23') slabs/node (min max mean):     35    35    35
********************************************************************************

Determining parallel strategy ...
... using space-filling curve
... NGWF load balancing: max      4;  min      1;  average      2
... Projector load balancing: max      3;  min      0;  average      1
... done
Calculating Ewald energy ...
              Ewald: real-space energy =       6.571766
        Ewald: reciprocal-space energy =       0.081892
         Ewald: (sum_charge)**2 Energy =       0.234823
         Ewald: (sum_charge**2) Energy =       0.482986
                          Ewald Energy =       5.935849
Basis initialisation ...
... Atom positions lie inside simulation cell
... NGWF spheres initialised
... Projector spheres initialised
... NGWF tight boxes initialised
... Tight-boxes gathered
... NGWF basis size (local,global):       1204      5372
... Nonlocal pseudopotential projector initialisation
... done

=========================== Sparse matrix information ==========================
                        Overlap matrix filling: 100.00%
                        Density kernel filling: 100.00%
              NGWF-Proj overlap matrix filling: 100.00%
                    Hamiltonian matrix filling: 100.00%
                  NGWF diagonal matrix filling:  50.00%
                             KS matrix filling: 100.00% 
                           KSKS matrix filling: 100.00% 
================================================================================

Sparse matrix initialisation ... done

Atom SCF Calculation for O  : Z (AE atom) =   8 : Z (PS atom) =   6
Config String:
Orbitals (num,occ):  2     2.00 4.00
Orbitals   (num,l):  2        0    1
Real-space Grid (nr,dr,rmax):  503    0.0119521912    6.0000000000
Spherical Bessel Basis (nsws,lmax,cutoff):   20    1   55.1234913368
Confining potential (l,width,scale):  0    3.0000000000  100.0000000000
Confining potential (l,width,scale):  1    3.0000000000  100.0000000000
  1 4077.6428610409   -7.1201309938   10.1554740437   -2.4512395517
  2 1619.8032822920   -3.1442385823   13.3511734595   -3.1747078116
  3  834.7378456119   -2.9484046718   13.5591432673   -3.2264963589
  4  426.5848360477   -2.9070362329   13.6038329422   -3.2393419942
  5  214.3557797010   -2.8935168335   13.6185644614   -3.2442134694
  6  103.9980346564   -2.8876166385   13.6250224282   -3.2465154501
  7   46.6122135558   -2.8847666127   13.6281481375   -3.2476736696
  8   16.7716279848   -2.8833498641   13.6297035055   -3.2482650276
  9    1.2545348676   -2.8826396668   13.6304836888   -3.2485680131
 10   -6.8143496695   -2.8822826314   13.6308761010   -3.2487234238
 11  -11.0101681579   -2.8821029254   13.6310736992   -3.2488031929
 12  -13.1919931962   -2.8820124211   13.6311732564   -3.2488441623
 13  -14.3265419935   -2.8819668257   13.6312234338   -3.2488652175
 14  -14.9165072869   -2.8819438503   13.6312487291   -3.2488760454
 15  -15.2232892138   -2.8819322713   13.6312614831   -3.2488816176
 16  -15.3828158107   -2.8819264350   13.6312679147   -3.2488844870
 17  -15.4657696425   -2.8819234930   13.6312711584   -3.2488859657
 18  -15.5089056380   -2.8819220098   13.6312727945   -3.2488867282
 19  -15.5313363582   -2.8819212620   13.6312736199   -3.2488871217
 20  -15.5430003347   -2.8819208849   13.6312740364   -3.2488873249
 21  -15.5490656037   -2.8819206947   13.6312742465   -3.2488874299
 22  -15.5522195444   -2.8819205988   13.6312743526   -3.2488874843
 23  -15.5538595941   -2.8819205504   13.6312744061   -3.2488875124
 24  -15.5547124202   -2.8819205260   13.6312744332   -3.2488875269
 25  -15.5551558900   -2.8819205137   13.6312744468   -3.2488875345
 26  -15.5553864944   -2.8819205074   13.6312744537   -3.2488875384
 27  -15.5555064088   -2.8819205043   13.6312744572   -3.2488875404
 28  -15.5555687642   -2.8819205027   13.6312744589   -3.2488875415
 29  -15.5556011891   -2.8819205019   13.6312744598   -3.2488875420
 30  -15.5556180501   -2.8819205015   13.6312744603   -3.2488875423
 31  -15.5556268178   -2.8819205013   13.6312744605   -3.2488875425
 32  -15.5556313770   -2.8819205012   13.6312744606   -3.2488875425
 33  -15.5556337478   -2.8819205012   13.6312744607   -3.2488875426
 34  -15.5556349806   -2.8819205011   13.6312744607   -3.2488875426
 35  -15.5556356216   -2.8819205011   13.6312744607   -3.2488875426
 36  -15.5556359550   -2.8819205011   13.6312744607   -3.2488875426
 37  -15.5556361283   -2.8819205011   13.6312744607   -3.2488875426
 38  -15.5556362185   -2.8819205011   13.6312744607   -3.2488875426
Atom SCF converged after  38 iterations to a total energy of    -15.55563622

Atom SCF Calculation for H  : Z (AE atom) =   1 : Z (PS atom) =   1
Config String:
Orbitals (num,occ):  1     1.00
Orbitals   (num,l):  1        0
Real-space Grid (nr,dr,rmax):  503    0.0119521912    6.0000000000
Spherical Bessel Basis (nsws,lmax,cutoff):   20    0   55.1234913368
Confining potential (l,width,scale):  0    3.0000000000  100.0000000000
  1  680.9972914635   -0.2254676002    0.2820965012   -0.2424203400
  2  272.1408075659   -0.2112543598    0.3031922433   -0.2589071332
  3  141.3007880026   -0.2047552089    0.3114463041   -0.2660418283
  4   73.2638070569   -0.2012934567    0.3157721367   -0.2698817672
  5   37.8848024650   -0.1995584628    0.3179286903   -0.2718323254
  6   19.4878911956   -0.1987103433    0.3189784736   -0.2727983700
  7    9.9215903937   -0.1983003290    0.3194836376   -0.2732715103
  8    4.9471590938   -0.1981030552    0.3197254185   -0.2735022527
  9    2.3604753974   -0.1980082896    0.3198408831   -0.2736147048
 10    1.0154088557   -0.1979627608    0.3198959957   -0.2736695790
 11    0.3159780076   -0.1979408629    0.3199223125   -0.2736964215
 12   -0.0477245467   -0.1979303129    0.3199348909   -0.2737095930
 13   -0.2368493330   -0.1979252195    0.3199409105   -0.2737160792
 14   -0.3351940539   -0.1979227549    0.3199437954   -0.2737192856
 15   -0.3863332772   -0.1979215593    0.3199451801   -0.2737208770
 16   -0.4129256845   -0.1979209778    0.3199458458   -0.2737216701
 17   -0.4267537556   -0.1979206942    0.3199461664   -0.2737220671
 18   -0.4339443693   -0.1979205556    0.3199463210   -0.2737222665
 19   -0.4376835004   -0.1979204876    0.3199463957   -0.2737223672
 20   -0.4396278565   -0.1979204541    0.3199464318   -0.2737224182
 21   -0.4406389267   -0.1979204377    0.3199464493   -0.2737224442
 22   -0.4411646861   -0.1979204295    0.3199464578   -0.2737224574
 23   -0.4414380828   -0.1979204255    0.3199464619   -0.2737224642
 24   -0.4415802502   -0.1979204235    0.3199464639   -0.2737224677
 25   -0.4416541778   -0.1979204225    0.3199464648   -0.2737224695
 26   -0.4416926204   -0.1979204220    0.3199464653   -0.2737224705
 27   -0.4417126108   -0.1979204217    0.3199464655   -0.2737224710
 28   -0.4417230059   -0.1979204216    0.3199464656   -0.2737224712
 29   -0.4417284115   -0.1979204215    0.3199464657   -0.2737224713
 30   -0.4417312224   -0.1979204215    0.3199464657   -0.2737224714
 31   -0.4417326841   -0.1979204215    0.3199464657   -0.2737224714
 32   -0.4417334441   -0.1979204215    0.3199464657   -0.2737224715
 33   -0.4417338394   -0.1979204215    0.3199464657   -0.2737224715
 34   -0.4417340449   -0.1979204215    0.3199464657   -0.2737224715
 35   -0.4417341518   -0.1979204215    0.3199464657   -0.2737224715
 36   -0.4417342074   -0.1979204215    0.3199464657   -0.2737224715
Atom SCF converged after  36 iterations to a total energy of     -0.44173421
NGWF initialisation ...... done
============ Calculation of NGWF S^-1 using Hotelling algorithm ================ 
         Iteration  |  Frobenius norm and Maximum abs value    (of I-S*S_n^-1)   
               1       0.20198090E+01     0.88624327E+00
               2       0.18020756E+01     0.78906893E+00
               3       0.15512561E+01     0.63359569E+00
               4       0.13036207E+01     0.48492555E+00
               5       0.10793301E+01     0.40846979E+00
               6       0.81087079E+00     0.30770402E+00
               7       0.46483346E+00     0.17760354E+00
               8       0.15288688E+00     0.59325240E-01
               9       0.16572279E-01     0.66210303E-02
              10       0.19624207E-03     0.82526296E-04
              11       0.28313992E-07     0.12850963E-07
              12       0.12002928E-14     0.66613381E-15
================================================================================
Up spin density kernel initialisation ... 
======= Optimisation of K by Palser-Manolopoulos canonical purification ======== 
         Iteration  |  Band structure energy |    c_n   
               1          -1.15573209110841    0.5866422
               2          -1.24443603790786    0.5760854
               3          -1.35753226812711    0.5598957
               4          -1.48802533377071    0.5399225
               5          -1.61209525178003    0.5231018
               6          -1.69634788532801    0.5112124
               7          -1.73210005314658    0.5018146
               8          -1.73965401576367    0.5000246
               9          -1.74001046457206    0.5000000
              10          -1.74001125180047    0.5000351
              11          -1.74001125180434    0.5000351
Termination criterion satisfied: band energy change below threshold.
Final occupancy bounds: [    0.00000000000000:    1.00000000000000]
Closest occupancy to 0.5:     1.00000000000000
================================================================================
... done

Writing density kernel to file "water.dkn" ... done
   Initial electron number for spin 1:       8.00000000
     Final electron number for spin 1:       8.00000000
................................................................................
<<<<<<<<<<<<<<<< Penalty functional density kernel optimisation >>>>>>>>>>>>>>>>
~~~~~~~~~~~~~~~~~~~~~~~~~~~~~~~~~~~~~~~~~~~~~~~~~~~~~~~~~~~~~~~~~~~~~~~~~~~~~~~~
iter|       energy      |   rms grad  |  commutator |LScoef|CGcoef|      Ne    |
      Q0=E0+P0:     -15.597946336181=    -15.597946336181+      0.000000000000
    Trial step:       1.000000000000
            G0:      -6.545272887364
WARNING: minimum value of charge density: -0.0914
      Q1=E1+P1:     149.789765607209=    -21.551024536208+    171.340790143417
Quadratic term:    -171.932984830754
   Linear term:      -6.545272887364
  Optimal step:       0.019034372299
 Predicted min:     -15.660238916648
    !!! Quadratic minimum step length accepted !!!
 1    -15.59794633618091 0.42639551564 0.05852001870 0.0190  0.000    8.00000000
      Q0=E0+P0:     -15.712550096253=    -15.722274625684+      0.009724529431
    Trial step:       0.137965112614
            G0:      -0.017772831057
      Q1=E1+P1:     -15.714940741529=    -15.724574234058+      0.009633492528
Quadratic term:      -0.000061385361
   Linear term:      -0.002452030638
  Optimal step:       2.755499644862
 Predicted min:     -15.737036611085
    !!! Quadratic minimum step length accepted !!!
 2    -15.72227462568360 0.35625312410 0.05528889690 2.7555 -0.833    8.00000000
      Q0=E0+P0:     -15.734749592873=    -15.760769486967+      0.026019894094
    Trial step:       0.616573449649
            G0:      -4.406638505492
WARNING: minimum value of charge density: -0.0100
      Q1=E1+P1:       6.613088505366=    -18.682091612932+     25.295180118298
Quadratic term:     -25.064854402924
   Linear term:      -2.717016304685
  Optimal step:       0.033418109852
 Predicted min:     -15.808380357701
    !!! Quadratic minimum step length accepted !!!
 3    -15.76076948696725 0.35020210496 0.01494513672 0.0334  3.102    8.00000000
WARNING: minimum value of charge density: -0.0004

======================== Penalty functional minimisation =======================
   Final total energy     :     -15.931277099486
   Final penalty energy   :       0.074056305498
   RMS occupancy error    :       0.055549
   Occupancy bounds       : [-0.066, 1.076]
================================================================================

Finished density kernel iterations (   3)

Writing density kernel to file "water.dkn" ... done

################################################################################
########################### NGWF CG iteration  001 #############################
################################################################################
****** Reciprocal space K.E. preconditioning with k_zero =  3.0000 a0^-1 *******
   Initial electron number for spin 1:       8.00000000
     Final electron number for spin 1:       8.00000000

=================== Penalty functional idempotency correction ==================
 RMS occupancy error at iteration   1:  0.055549 (step -0.4165 Ne1=      8.0000)
 RMS occupancy error at iteration   2:  0.002014 (step -0.5002 Ne1=      8.0000)
 RMS occupancy error at iteration   3:  0.000009 (step -0.5000 Ne1=      8.0000)
            Final RMS occupancy error   :  0.000000 (Ne1=      8.0000)
               Final occupancy bounds   : [  0.0000,  1.0000]
================================================================================

................................................................................
<<<<<<<<<<<<<< LNV (Original version) density kernel optimisation >>>>>>>>>>>>>>
~~~~~~~~~~~~~~~~~~~~~~~~~~~~~~~~~~~~~~~~~~~~~~~~~~~~~~~~~~~~~~~~~~~~~~~~~~~~~~~~
iter|       energy      |  rms DeltaK |  commutator |LScoef|CGcoef|      Ne    |
      ideal mu1:      -0.534049955699
             Q0:     -15.630725440960
             G0:      -0.007312003421
   RMS gradient:       0.014251708885
     Trial step:       0.500000000000
             Q1:     -15.631852102653
 Quadratic coef:       0.002529340017
 Linear coef   :      -0.003656001710
           Qmin:     -15.632046571019
Quadratic minimum step length (  0.361359256338) accepted
    Initial Ne1:       7.99999999
      Final Ne1:       8.00000000

=================== Penalty functional idempotency correction ==================
 RMS occupancy error at iteration   1:  0.000250 (step -0.4994 Ne1=      8.0000)
            Final RMS occupancy error   :  0.000000 (Ne1=      8.0000)
               Final occupancy bounds   : [  0.0000,  1.0000]
================================================================================

 1    -15.63072544095966 0.00000000000 0.01068878165 0.3614  0.000    8.00000000
      ideal mu1:      -0.533293995080
             Q0:     -15.632046071415
             G0:      -0.000407307140
   RMS gradient:       0.003359789842
     Trial step:       0.425064263575
             Q1:     -15.632138152869
 Quadratic coef:       0.000081050255
 Linear coef   :      -0.000173131709
           Qmin:     -15.632138528215
Quadratic minimum step length (  0.453990566920) accepted
    Initial Ne1:       8.00000062
      Final Ne1:       8.00000000

=================== Penalty functional idempotency correction ==================
 RMS occupancy error at iteration   1:  0.000049 (step -0.4999 Ne1=      8.0000)
            Final RMS occupancy error   :  0.000000 (Ne1=      8.0000)
               Final occupancy bounds   : [ -0.0000,  1.0000]
================================================================================

 2    -15.63204607141509 0.00016514126 0.00251984242 0.4540  0.056    8.00000000
      ideal mu1:      -0.530290449009
             Q0:     -15.632138577029
             G0:      -0.000053841819
   RMS gradient:       0.001222569295
     Trial step:       0.439289387532
             Q1:     -15.632150803880
 Quadratic coef:       0.000011425288
 Linear coef   :      -0.000023652140
           Qmin:     -15.632150817939
Quadratic minimum step length (  0.454698978003) accepted
    Initial Ne1:       8.00000011
      Final Ne1:       8.00000000

=================== Penalty functional idempotency correction ==================
 RMS occupancy error at iteration   1:  0.000010 (step -0.5000 Ne1=      8.0000)
            Final RMS occupancy error   :  0.000000 (Ne1=      8.0000)
               Final occupancy bounds   : [  0.0000,  1.0000]
================================================================================

 3    -15.63213857702891 0.00001222439 0.00091692698 0.4547  0.132    8.00000000
      ideal mu1:      -0.531019972144
             Q0:     -15.632150819863
             G0:      -0.000000293021
   RMS gradient:       0.000090213843
     Trial step:       0.446927774431
             Q1:     -15.632150911434
 Quadratic coef:       0.000000039389
 Linear coef   :      -0.000000130959
           Qmin:     -15.632150928716
Quadratic minimum step length (  0.742969260460) accepted
    Initial Ne1:       7.99999999
      Final Ne1:       8.00000000

=================== Penalty functional idempotency correction ==================
 RMS occupancy error at iteration   1:  0.000000 (step -0.5000 Ne1=      8.0000)
            Final RMS occupancy error   :  0.000000 (Ne1=      8.0000)
               Final occupancy bounds   : [  0.0000,  1.0000]
================================================================================

 4    -15.63215081986315 0.00000174572 0.00006766038 0.7430  0.005    8.00000000
      ideal mu1:      -0.531014485128
             Q0:     -15.632150928717
             G0:      -0.000000075314
   RMS gradient:       0.000045738369
     Trial step:       0.576240920144
             Q1:     -15.632150939575
 Quadratic coef:       0.000000032542
 Linear coef   :      -0.000000043399
           Qmin:     -15.632150943187
Quadratic minimum step length (  0.384248960177) accepted
    Initial Ne1:       8.00000000
      Final Ne1:       8.00000000

=================== Penalty functional idempotency correction ==================
 RMS occupancy error at iteration   1:  0.000000 (step -0.5000 Ne1=      8.0000)
            Final RMS occupancy error   :  0.000000 (Ne1=      8.0000)
               Final occupancy bounds   : [  0.0000,  1.0000]
================================================================================

 5    -15.63215092871749 0.00000001369 0.00003430378 0.3842  0.257    8.00000000
      ideal mu1:      -0.531019028768
             Q0:     -15.632150943187
             G0:      -0.000000004874
   RMS gradient:       0.000011635934
     Trial step:       0.470552839091
             Q1:     -15.632150944448
 Quadratic coef:       0.000000001033
 Linear coef   :      -0.000000002294
           Qmin:     -15.632150944460
Quadratic minimum step length (  0.522208357269) accepted
    Initial Ne1:       8.00000000
      Final Ne1:       8.00000000

=================== Penalty functional idempotency correction ==================
 RMS occupancy error at iteration   1:  0.000000 (step -0.5000 Ne1=      8.0000)
            Final RMS occupancy error   :  0.000000 (Ne1=      8.0000)
               Final occupancy bounds   : [  0.0000,  1.0000]
================================================================================

 6    -15.63215094318735 0.00000000228 0.00000872695 0.5222  0.065    8.00000000
      ideal mu1:      -0.531016479279
             Q0:     -15.632150944460
             G0:      -0.000000000188
   RMS gradient:       0.000002282675
     Trial step:       0.495708205611
             Q1:     -15.632150944514
 Quadratic coef:       0.000000000039
 Linear coef   :      -0.000000000093
           Qmin:     -15.632150944516
Quadratic minimum step length (  0.592810845518) accepted
    Initial Ne1:       8.00000000
      Final Ne1:       8.00000000

=================== Penalty functional idempotency correction ==================
 RMS occupancy error at iteration   1:  0.000000 (step -0.5000 Ne1=      8.0000)
            Final RMS occupancy error   :  0.000000 (Ne1=      8.0000)
               Final occupancy bounds   : [ -0.0000,  1.0000]
================================================================================

 7    -15.63215094445998 0.00000000017 0.00000171201 0.5928  0.000    8.00000000
      ideal mu1:      -0.531017643274
             Q0:     -15.632150944516
             G0:      -0.000000000023
   RMS gradient:       0.000000799538
     Trial step:       0.542089660941
             Q1:     -15.632150944521
 Quadratic coef:       0.000000000008
 Linear coef   :      -0.000000000013
           Qmin:     -15.632150944521
Quadratic minimum step length (  0.445376859099) accepted
    Initial Ne1:       8.00000000
      Final Ne1:       8.00000000

=================== Penalty functional idempotency correction ==================
 RMS occupancy error at iteration   1:  0.000000 (step -0.5000 Ne1=      8.0000)
            Final RMS occupancy error   :  0.000000 (Ne1=      8.0000)
               Final occupancy bounds   : [  0.0000,  1.0000]
================================================================================

 8    -15.63215094451572 0.00000000001 0.00000059965 0.4454  0.123    8.00000000
      ideal mu1:      -0.531017069899
             Q0:     -15.632150944521
             G0:      -0.000000000002
   RMS gradient:       0.000000237014
     Trial step:       0.491359532867
             Q1:     -15.632150944521
 Quadratic coef:       0.000000000001
 Linear coef   :      -0.000000000001
           Qmin:     -15.632150944521
Quadratic minimum step length (  0.382070586803) accepted
    Initial Ne1:       8.00000000
      Final Ne1:       8.00000000

=================== Penalty functional idempotency correction ==================
 RMS occupancy error at iteration   1:  0.000000 (step -0.5000 Ne1=      8.0000)
            Final RMS occupancy error   :  0.000000 (Ne1=      8.0000)
               Final occupancy bounds   : [ -0.0000,  1.0000]
================================================================================

 9    -15.63215094452084 0.00000000000 0.00000017776 0.3821  0.088    8.00000000
      ideal mu1:      -0.531017107609
10    -15.63215094452120 0.00000000000 0.00000004855 0.0000  0.000    8.00000000
Finished density kernel iterations (  10)

Writing density kernel to file "water.dkn" ... done

           ........................................................
           | *** NGWF optimisation not converged ***              |
           | RMS NGWF gradient =    0.03438014191800              |
           | Criteria not satisfied:                              |
           | -> RMS NGWF gradient higher than set threshold.      |
           ========================================================

------------------------------- NGWF line search -------------------------------
============ Calculation of NGWF S^-1 using Hotelling algorithm ================ 
         Iteration  |  Frobenius norm and Maximum abs value    (of I-S*S_n^-1)   
               1       0.12377578E+00     0.84678649E-01
               2       0.10161615E-01     0.70265687E-02
               3       0.70104616E-04     0.48780404E-04
               4       0.35920606E-08     0.24447252E-08
               5       0.76958724E-15     0.34694470E-15
================================================================================
============ Calculation of NGWF S^-1 using Hotelling algorithm ================ 
         Iteration  |  Frobenius norm and Maximum abs value    (of I-S*S_n^-1)   
               1       0.11110228E-01     0.74120271E-02
               2       0.81821055E-04     0.54928522E-04
               3       0.45779590E-08     0.30503090E-08
               4       0.65068096E-15     0.22204460E-15
================================================================================
RMS gradient                =       0.03438014191800
Trial step length           =               0.122474
Gradient along search dir.  =         -8.55645571194
Functional at step 0        =     -15.63215094452120
Functional at step 1        =     -16.11240858392775
Functional predicted        =     -16.11577503358418
Selected quadratic step     =               0.113043
Conjugate gradients coeff.  =               0.000000
--------------------------- NGWF line search finished --------------------------
                                               
Writing NGWFs to file "water.tightbox_ngwfs"....  done

################################################################################
########################### NGWF CG iteration  002 #############################
################################################################################
****** Reciprocal space K.E. preconditioning with k_zero =  3.0000 a0^-1 *******
   Initial electron number for spin 1:       8.24278155
     Final electron number for spin 1:       8.00000000

=================== Penalty functional idempotency correction ==================
 RMS occupancy error at iteration   1:  0.026146 (step -0.4613 Ne1=      8.0000)
 RMS occupancy error at iteration   2:  0.000704 (step -0.5007 Ne1=      8.0000)
 RMS occupancy error at iteration   3:  0.000001 (step -0.5000 Ne1=      8.0000)
            Final RMS occupancy error   :  0.000000 (Ne1=      8.0000)
               Final occupancy bounds   : [  0.0000,  1.0000]
================================================================================

................................................................................
<<<<<<<<<<<<<< LNV (Original version) density kernel optimisation >>>>>>>>>>>>>>
~~~~~~~~~~~~~~~~~~~~~~~~~~~~~~~~~~~~~~~~~~~~~~~~~~~~~~~~~~~~~~~~~~~~~~~~~~~~~~~~
iter|       energy      |  rms DeltaK |  commutator |LScoef|CGcoef|      Ne    |
      ideal mu1:      -0.545278468595
             Q0:     -16.107798453140
             G0:      -0.078244071503
   RMS gradient:       0.046620236278
     Trial step:       0.433282846480
             Q1:     -16.124595513098
 Quadratic coef:       0.017104754063
 Linear coef   :      -0.033901814021
           Qmin:     -16.124596896861
Quadratic minimum step length (  0.429385725915) accepted
    Initial Ne1:       8.00000000
      Final Ne1:       8.00000000

=================== Penalty functional idempotency correction ==================
 RMS occupancy error at iteration   1:  0.003025 (step -0.4941 Ne1=      8.0000)
 RMS occupancy error at iteration   2:  0.000007 (step -0.5000 Ne1=      8.0000)
            Final RMS occupancy error   :  0.000000 (Ne1=      8.0000)
               Final occupancy bounds   : [  0.0000,  1.0000]
================================================================================

 1    -16.10779845314045 0.00000000000 0.03496517721 0.4294  0.000    8.00000000
      ideal mu1:      -0.502945270735
             Q0:     -16.124701553461
             G0:      -0.005563567781
   RMS gradient:       0.012327184040
     Trial step:       0.431329884847
             Q1:     -16.126084332086
 Quadratic coef:       0.001016954426
 Linear coef   :      -0.002399733050
           Qmin:     -16.126117231137
Quadratic minimum step length (  0.508910012950) accepted
    Initial Ne1:       7.99999999
      Final Ne1:       8.00000000

=================== Penalty functional idempotency correction ==================
 RMS occupancy error at iteration   1:  0.000753 (step -0.4986 Ne1=      8.0000)
 RMS occupancy error at iteration   2:  0.000000 (step -0.5000 Ne1=      8.0000)
            Final RMS occupancy error   :  0.000000 (Ne1=      8.0000)
               Final occupancy bounds   : [  0.0000,  1.0000]
================================================================================

 2    -16.12470155346138 0.00209980547 0.00924538802 0.5089  0.070    8.00000000
      ideal mu1:      -0.508660747855
             Q0:     -16.126125101396
             G0:      -0.000697463865
   RMS gradient:       0.004387506892
     Trial step:       0.468516912484
             Q1:     -16.126263750689
 Quadratic coef:       0.000188124323
 Linear coef   :      -0.000326773616
           Qmin:     -16.126267003563
Quadratic minimum step length (  0.406909014724) accepted
    Initial Ne1:       8.00000000
      Final Ne1:       8.00000000

=================== Penalty functional idempotency correction ==================
 RMS occupancy error at iteration   1:  0.000127 (step -0.4998 Ne1=      8.0000)
            Final RMS occupancy error   :  0.000000 (Ne1=      8.0000)
               Final occupancy bounds   : [  0.0000,  1.0000]
================================================================================

 3    -16.12612510139583 0.00019208411 0.00329063017 0.4069  0.127    8.00000000
      ideal mu1:      -0.507396826402
             Q0:     -16.126267280965
             G0:      -0.000006598857
   RMS gradient:       0.000427615351
     Trial step:       0.436627707825
             Q1:     -16.126269194890
 Quadratic coef:       0.000000967319
 Linear coef   :      -0.000002881244
           Qmin:     -16.126269426474
Quadratic minimum step length (  0.650267062608) accepted
    Initial Ne1:       8.00000004
      Final Ne1:       8.00000000

=================== Penalty functional idempotency correction ==================
 RMS occupancy error at iteration   1:  0.000003 (step -0.5000 Ne1=      8.0000)
            Final RMS occupancy error   :  0.000000 (Ne1=      8.0000)
               Final occupancy bounds   : [  0.0000,  1.0000]
================================================================================

 4    -16.12626728096452 0.00002031579 0.00032071151 0.6503  0.009    8.00000000
      ideal mu1:      -0.507668664522
             Q0:     -16.126269426476
             G0:      -0.000000959305
   RMS gradient:       0.000163247164
     Trial step:       0.532845772265
             Q1:     -16.126269572072
 Quadratic coef:       0.000000365566
 Linear coef   :      -0.000000511162
           Qmin:     -16.126269605162
Quadratic minimum step length (  0.372532433183) accepted
    Initial Ne1:       8.00000000
      Final Ne1:       8.00000000

=================== Penalty functional idempotency correction ==================
 RMS occupancy error at iteration   1:  0.000000 (step -0.5000 Ne1=      8.0000)
            Final RMS occupancy error   :  0.000000 (Ne1=      8.0000)
               Final occupancy bounds   : [  0.0000,  1.0000]
================================================================================

 5    -16.12626942647614 0.00000027177 0.00012243537 0.3725  0.146    8.00000000
      ideal mu1:      -0.507557455960
             Q0:     -16.126269605160
             G0:      -0.000000019017
   RMS gradient:       0.000022983439
     Trial step:       0.445536005339
             Q1:     -16.126269609289
 Quadratic coef:       0.000000004343
 Linear coef   :      -0.000000008473
           Qmin:     -16.126269609292
Quadratic minimum step length (  0.434569670966) accepted
    Initial Ne1:       8.00000000
      Final Ne1:       8.00000000

=================== Penalty functional idempotency correction ==================
 RMS occupancy error at iteration   1:  0.000000 (step -0.5000 Ne1=      8.0000)
            Final RMS occupancy error   :  0.000000 (Ne1=      8.0000)
               Final occupancy bounds   : [  0.0000,  1.0000]
================================================================================

 6    -16.12626960516002 0.00000002564 0.00001723758 0.4346  0.020    8.00000000
      ideal mu1:      -0.507555021531
             Q0:     -16.126269609292
             G0:      -0.000000001051
   RMS gradient:       0.000005402316
     Trial step:       0.440018676017
             Q1:     -16.126269609597
 Quadratic coef:       0.000000000158
 Linear coef   :      -0.000000000462
           Qmin:     -16.126269609631
Quadratic minimum step length (  0.645434663226) accepted
    Initial Ne1:       8.00000000
      Final Ne1:       8.00000000

=================== Penalty functional idempotency correction ==================
 RMS occupancy error at iteration   1:  0.000000 (step -0.5000 Ne1=      8.0000)
            Final RMS occupancy error   :  0.000000 (Ne1=      8.0000)
               Final occupancy bounds   : [  0.0000,  1.0000]
================================================================================

 7    -16.12626960929222 0.00000000053 0.00000405174 0.6454  0.000    8.00000000
      ideal mu1:      -0.507554124352
[...]
    Initial Ne1:       8.00000000
      Final Ne1:       8.00000000

=================== Penalty functional idempotency correction ==================
 RMS occupancy error at iteration   1:  0.000000 (step -0.5000 Ne1=      8.0000)
            Final RMS occupancy error   :  0.000000 (Ne1=      8.0000)
               Final occupancy bounds   : [  0.0000,  1.0000]
================================================================================

 4    -16.20562117268178 0.00000000000 0.00000020263 0.0999  0.226    8.00000000
      ideal mu1:      -0.544606430127
             Q0:     -16.205621172682
             G0:      -0.000000000003
   RMS gradient:       0.000000185374
     Trial step:       0.090183063694
             Q1:     -16.205621172682
 Quadratic coef:       0.000000000000
 Linear coef   :      -0.000000000000
           Qmin:     -16.205621172682
Quadratic minimum step length (  0.063708498020) accepted
    Initial Ne1:       8.00000000
      Final Ne1:       8.00000000

=================== Penalty functional idempotency correction ==================
 RMS occupancy error at iteration   1:  0.000000 (step -0.5000 Ne1=      8.0000)
            Final RMS occupancy error   :  0.000000 (Ne1=      8.0000)
               Final occupancy bounds   : [  0.0000,  1.0000]
================================================================================

 5    -16.20562117268208 0.00000000000 0.00000013903 0.0637  0.471    8.00000000
      ideal mu1:      -0.544606379572
             Q0:     -16.205621172682
             G0:      -0.000000000002
   RMS gradient:       0.000000147084
     Trial step:       0.075798598502
             Q1:     -16.205621172683
 Quadratic coef:      -0.000000000000
 Linear coef   :      -0.000000000000
         Quadratic fit unsuccessful: proceeding to cubic fit
             Q2:     -16.205621172683
  Cubic LS coeff:       0.161395516239
Predicted energy:     -16.205621172683
Cubic minimum step length accepted
    Initial Ne1:       8.00000000
      Final Ne1:       8.00000000

=================== Penalty functional idempotency correction ==================
 RMS occupancy error at iteration   1:  0.000000 (step -0.5000 Ne1=      8.0000)
            Final RMS occupancy error   :  0.000000 (Ne1=      8.0000)
               Final occupancy bounds   : [  0.0000,  1.0000]
================================================================================

 6    -16.20562117268220 0.00000000000 0.00000011031 0.1614  0.630    8.00000000
      ideal mu1:      -0.544606278069
             Q0:     -16.205621172683
             G0:      -0.000000000000
   RMS gradient:       0.000000075669
     Trial step:       0.110605397406
             Q1:     -16.205621172682
 Quadratic coef:       0.000000000000
 Linear coef   :      -0.000000000000
           Qmin:     -16.205621172683
Quadratic minimum step length (  0.012675017972) accepted
    Initial Ne1:       8.00000000
      Final Ne1:       8.00000000

=================== Penalty functional idempotency correction ==================
 RMS occupancy error at iteration   1:  0.000000 (step -0.5000 Ne1=      8.0000)
            Final RMS occupancy error   :  0.000000 (Ne1=      8.0000)
               Final occupancy bounds   : [  0.0000,  1.0000]
================================================================================

 7    -16.20562117268255 0.00000000000 0.00000005675 0.0127  0.000    8.00000000
      ideal mu1:      -0.544606278844
             Q0:     -16.205621172683
             G0:      -0.000000000000
   RMS gradient:       0.000000074122
     Trial step:       0.037442294267
             Q1:     -16.205621172682
 Quadratic coef:       0.000000000000
 Linear coef   :      -0.000000000000
           Qmin:     -16.205621172683
Quadratic minimum step length (  0.007724813988) accepted
    Initial Ne1:       8.00000000
      Final Ne1:       8.00000000

=================== Penalty functional idempotency correction ==================
 RMS occupancy error at iteration   1:  0.000000 (step -0.5000 Ne1=      8.0000)
            Final RMS occupancy error   :  0.000000 (Ne1=      8.0000)
               Final occupancy bounds   : [ -0.0000,  1.0000]
================================================================================

 8    -16.20562117268252 0.00000000000 0.00000005559 0.0077  0.960    8.00000000
      ideal mu1:      -0.544606279747
             Q0:     -16.205621172683
             G0:      -0.000000000001
   RMS gradient:       0.000000072312
     Trial step:       0.017006903260
             Q1:     -16.205621172683
 Quadratic coef:      -0.000000000000
 Linear coef   :      -0.000000000000
         Quadratic fit unsuccessful: proceeding to cubic fit
             Q2:     -16.205621172683
  Cubic LS coeff:       0.026494092959
Predicted energy:     -16.205621172683
Cubic minimum step length accepted
    Initial Ne1:       8.00000000
      Final Ne1:       8.00000000

=================== Penalty functional idempotency correction ==================
 RMS occupancy error at iteration   1:  0.000000 (step -0.5000 Ne1=      8.0000)
            Final RMS occupancy error   :  0.000000 (Ne1=      8.0000)
               Final occupancy bounds   : [ -0.0000,  1.0000]
================================================================================

 9    -16.20562117268256 0.00000000000 0.00000005423 0.0265  0.952    8.00000000
      ideal mu1:      -0.544606284160
10    -16.20562117268253 0.00000000000 0.00000004771 0.0000  0.000    8.00000000
Finished density kernel iterations (  10)

Writing density kernel to file "water.dkn" ... done

           ........................................................
           | *** NGWF optimisation converged ***                  |
           | RMS NGWF gradient =    0.00000132347792              |
           | Maximum change in energy =  0.00000000006497 / atom  |
           | Criteria satisfied:                                  |
           | -> RMS NGWF gradient lower than set threshold.       |
           | -> Energy change per atom lower than set threshold.  |
           ========================================================

================================================================================
           ---------------- ENERGY COMPONENTS (Eh) ----------------
           | Kinetic                    :        9.50777447322071 |
           | Pseudopotential (local)    :      -44.75217337079542 |
           | Pseudopotential (non-local):       -1.89154527474817 |
           | Hartree                    :       18.96110577280660 |
           | Exchange-correlation       :       -3.96663202113708 |
           | Ewald                      :        5.93584924797084 |
           | Total                      :      -16.20562117268253 |
           --------------------------------------------------------
           ------ LOCAL ENERGY COMPONENTS FROM MATRIX TRACES ------
           | Pseudopotential (local)    :      -44.75217337079557 |
           | Hartree                    :       18.96110577280663 |
           --------------------------------------------------------
           Integrated density           :        7.99999999999999
           Integrated density tr(KS)    :        8.00000000000000
================================================================================


                    <<<<< CALCULATION SUMMARY >>>>>
|ITER|    RMS GRADIENT   |     TOTAL ENERGY    |   step   |     Epredicted      
   1     0.03438014191800    -15.63215094452120   0.113043    -16.11577503358418
   2     0.00906613445742    -16.12626960970371   0.165731    -16.17692396296283
   3     0.00458367797817    -16.18062626153291   0.196026    -16.19651617137062
   4     0.00281353529006    -16.19741762177092   0.196342    -16.20336790890013
   5     0.00163490812540    -16.20349567935101   0.141641    -16.20486600583217
   6     0.00095400879159    -16.20486827562017   0.182523    -16.20547042905706
   7     0.00051523105938    -16.20546763107894   0.156442    -16.20561712083525
   8     0.00014477091275    -16.20561698624185   0.047764    -16.20562060457249
   9     0.00007184580541    -16.20562070575322   0.023604    -16.20562114675251
  10     0.00003289522541    -16.20562115361258   0.004285    -16.20562117059604
  11     0.00001846714917    -16.20562117094203   0.001108    -16.20562117231207
  12     0.00001138319679    -16.20562117239513   0.000357    -16.20562117256155
  13     0.00000741397843    -16.20562117259004   0.000389    -16.20562117266751
  14     0.00000132347792    -16.20562117268253  <-- CG                         
 
===================== Density of States (DOS) calculation ======================
Writing "water_DOS.txt" ...  done
================================================================================
 
Writing bands to file "water.val_bands" ... done

=================== Orbital energy and occupancy information ===================

      Total number of orbitals:       6
   Number of occupied orbitals:       4
                 Occupancy sum:       4.000000000
                 HOMO-LUMO gap:       0.306424461 Eh
                 Mid-gap level:      -0.091083605 Eh

                        Orbital | Energy (Eh) | Occupancy
                            1    -1.090579323   1.0000000
                            2    -0.468723997   1.0000000
                            3    -0.374825982   1.0000000
                            4    -0.244295835   1.0000000
                        .......   --- gap ---   .........
                            5     0.062128626   0.0000000
                            6     0.174007791   0.0000000

================================================================================

********************* Unconstrained **********************
********************* Ewald forces  **********************
*                                                        *
* Element  Atom         Cartesian components (Eh/a)      *
* ------------------------------------------------------ *
*                       x            y            z      *
*                                                        *
*    O       1     -2.30074936   0.13293069   0.13450602 *
*    H       2      1.16935963  -0.93070254   1.14015809 *
*    H       3      1.13138973   0.79777185  -1.27466411 *
*                                                        *
**********************************************************
TOTAL:             -0.00000000   0.00000000  -0.00000000
 
********************* Unconstrained **********************
***************** Local potential forces *****************
*                                                        *
* Element  Atom         Cartesian components (Eh/a)      *
* ------------------------------------------------------ *
*                       x            y            z      *
*                                                        *
*    O       1      1.61024568  -0.09273700  -0.10356684 *
*    H       2     -1.14062160   0.89805673  -1.11312877 *
*    H       3     -1.10116918  -0.76761582   1.24688127 *
*                                                        *
**********************************************************
TOTAL:             -0.63154510   0.03770391   0.03018565
********************* Unconstrained **********************
*************** Non-local potential forces ***************
*                                                        *
* Element  Atom         Cartesian components (Eh/a)      *
* ------------------------------------------------------ *
*                       x            y            z      *
*                                                        *
*    O       1      0.59116692  -0.03276937  -0.05686571 *
*    H       2      0.00000000   0.00000000   0.00000000 *
*    H       3      0.00000000   0.00000000   0.00000000 *
*                                                        *
**********************************************************
TOTAL:              0.59116692  -0.03276937  -0.05686571
 
********************* Unconstrained **********************
************ NGWF non self-consistent forces *************
*                                                        *
* Element  Atom         Cartesian components (Eh/a)      *
* ------------------------------------------------------ *
*                       x            y            z      *
*                                                        *
*    O       1      0.00790290  -0.00070745   0.00192977 *
*    H       2      0.00028312   0.00060159  -0.00027516 *
*    H       3      0.00031706  -0.00057192   0.00048625 *
*                                                        *
**********************************************************
TOTAL:              0.00850308  -0.00067778   0.00214087
 
********************* Unconstrained **********************
****** Correction to ensure the total force is zero ******
*                                                        *
* Element  Atom         Cartesian components (Eh/a)      *
* ------------------------------------------------------ *
*                       x            y            z      *
*                                                        *
*    O       1     -0.01062504   0.00141892  -0.00817973 *
*    H       2     -0.01062504   0.00141892  -0.00817973 *
*    H       3     -0.01062504   0.00141892  -0.00817973 *
*                                                        *
**********************************************************
TOTAL:             -0.03187511   0.00425676  -0.02453919

********************* Unconstrained **********************
************************* Forces *************************
*                                                        *
* Element  Atom         Cartesian components (Eh/a)      *
* ------------------------------------------------------ *
*                       x            y            z      *
*                                                        *
*    O       1     -0.08080883   0.00529795  -0.01581703 *
*    H       2      0.03964619  -0.03346314   0.03493389 *
*    H       3      0.04116264   0.02816519  -0.01911686 *
*                                                        *
**********************************************************
* TOTAL:            0.00000000   0.00000000   0.00000000 *
**********************************************************

------------------------------ TIMING INFORMATION ------------------------------
AVERAGE TIME:     475.001s on      3 node(s)                                    
TOTAL TIME:       475.003s on      3 node(s)                                    
================== AVERAGE TIMINGS FROM ALL NODES (CUMULATIVE) =================
|| TAG                                    #calls    cpu time   %total  Gflops ||
|| work_imbalance                       :     1        0.00s   0.000%  ------ ||
|| ewald_calculate_forces_realspace     :     1        0.00s   0.000%  ------ ||
|| dense_eigensolve                     :     1        0.00s   0.000%  ------ ||
|| ewald_calculate_forces_recipspace    :     1        0.00s   0.000%  ------ ||
|| basis_extract_function_from_box      :    56        0.00s   0.000%  ------ ||
|| ewald_calculate_forces               :     1        0.00s   0.000%  ------ ||
|| ewald_calculate_energy               :     1        0.00s   0.000%  ------ ||
|| pseudopotentials_nonlocal_mat        :    27        0.00s   0.001%  ------ ||
|| sparse_init                          :     1        0.00s   0.001%  ------ ||
|| restart_kernel_write                 :    16        0.00s   0.001%  ------ ||
|| restart_ngwfs_tightbox_output        :    13        0.00s   0.001%  ------ ||
|| palser_mano_kernel_optimise          :     1        0.00s   0.001%  ------ ||
|| integrals_brappd_ketppd              :    27        0.00s   0.001%  ------ ||
|| eigenstates_calculate                :     1        0.00s   0.001%  ------ ||
|| sparse_hotelling_invert              :    27        0.01s   0.002%  ------ ||
|| ngwf_gradient_coeffs                 :    14        0.01s   0.002%  ------ ||
|| basis_dot_function_with_box          :  2193        0.02s   0.003%  ------ ||
|| integrals_grad                       :     1        0.02s   0.004%  ------ ||
|| nonsc_forces_ngwfs_calc              :     1        0.02s   0.004%  ------ ||
|| basis_add_function_to_box            :  4440        0.03s   0.007%  ------ ||
|| projectors_func_grad_ovlp_box        :     3        0.05s   0.011%  ------ ||
|| pseudo_nl_calculate_forces           :     1        0.05s   0.011%  ------ ||
|| pseudo_make_structure_factor         :     1        0.08s   0.017%  ------ ||
|| lnv_gradient_norm                    :   140        0.08s   0.018%  ------ ||
|| kernel_fix                           :   140        0.10s   0.020%  ------ ||
|| density_initial_guess_real           :     1        0.10s   0.021%  ------ ||
|| kernel_purify                        :   456        0.11s   0.024%  ------ ||
|| basis_copy_function_to_box           :  1012        0.12s   0.026%  ------ ||
|| sparse_trace                         :  3907        0.14s   0.030%  ------ ||
|| fourier_apply_box_pair               :    93        0.15s   0.032%  13.986 ||
|| density_batch_row_sums               :   314        0.17s   0.037%  ------ ||
|| sparse_product                       :  4932        0.21s   0.044%  ------ ||
|| integrals_kinetic                    :    27        0.23s   0.048%  ------ ||
|| pseudopotentials_local_on_grid       :     1        0.28s   0.059%  ------ ||
|| pseudo_local_calculate_forces        :     1        0.33s   0.070%  ------ ||
|| projectors_gradient_batch            :    14        0.38s   0.080%  ------ ||
|| projectors_func_ovlp_box             :    27        0.46s   0.096%  ------ ||
|| forces_calculate                     :     1        0.48s   0.100%  ------ ||
|| projectors_init_fftbox_recip         :    44        0.51s   0.108%  ------ ||
|| integrals_locpot_mat_els_batch       :   151        1.17s   0.246%  ------ ||
|| properties_calculate                 :     1        1.55s   0.326%  ------ ||
|| ngwf_gradient_batch                  :    14        2.38s   0.500%  ------ ||
|| ngwf_gradient_lnv                    :    14        2.69s   0.567%  ------ ||
|| cell_grid_extract_box                :   688        3.23s   0.679%  ------ ||
|| hamiltonian_energy_components        :     3        5.10s   1.074%  ------ ||
|| cell_grid_deposit_box                :  1257        9.61s   2.022%  ------ ||
|| density_fftbox_deposit_to_cell       :  1256        9.61s   2.024%  ------ ||
|| fourier_apply_box                    :  2336        9.99s   2.104%  25.979 ||
|| density_fftbox_interpolate_multiply  :  1256       10.13s   2.132%  ------ ||
|| potential_apply_to_ngwf_batch        :   151       10.88s   2.291%  ------ ||
|| penalty_denskernel_optimise_cg       :     1       11.27s   2.374%  ------ ||
|| integrals_locpot_dbl_grid            :   151       12.16s   2.561%  ------ ||
|| density_batch_interp_deposit         :   314       20.62s   4.340%  ------ ||
|| density_on_dbl_grid                  :   314       23.37s   4.921%  ------ ||
|| hartree_on_grid                      :   314       66.62s  14.024%  ------ ||
|| fourier_apply_cell_forward           :  1571      139.02s  29.267%   5.911 ||
|| fourier_apply_cell_backward          :  1571      182.77s  38.478%   4.496 ||
|| xc_energy_potential                  :   314      344.66s  72.559%  ------ ||
|| lnv_denskernel_optimise_cg           :    14      432.00s  90.948%  ------ ||
|| ngwf_cg_optimise                     :     1      459.46s  96.727%  ------ ||
|| total_time                           :     1      475.00s 100.000%  ------ ||
================================================================================
Overhead of generating timer report: 
- 0 ms averaging over threads,
- 0 ms ensuring consistency across MPI ranks,
- 0 ms printing in order.

Job completed: 09-03-2015 16:57 (-0000)

