 +---------------------------------------------------------------+
 |                                                               |
 |        ####### #     # ####### ####### ####### ######         |
 |        #     # ##    # #          #    #       #     #        |
 |        #     # # #   # #          #    #       #     #        |
 |        #     # #  #  # #####      #    #####   ######         |
 |        #     # #   # # #          #    #       #              |
 |        #     # #    ## #          #    #       #              |
 |        ####### #     # #######    #    ####### #              |
 |                                                               |
 |        Linear-Scaling Ab Initio Total Energy Program          |
 |                                                               |
 |          Release for academic collaborators of ODG            |
 |                                             Version 3.5.9.8   |
 |                                                               |
 +---------------------------------------------------------------+
 |                                                               |
 |  Authors:                                                     |
 |  Jacek Dziedzic, Peter D. Haynes, Nicholas D. M. Hine,        |
 |  Arash. A. Mostofi, Mike C. Payne and Chris-Kriton Skylaris   |
 |                                                               |
 |  Contributors:                                                |
 |  J. Aarons, L. Andrinopoulos, P. W. Avraam, R. A. Bell,       |
 |  S. J. Clark, G. C. Constantinescu, F. Corsetti, N. Corsini,  |
 |  O. Dieguez, S. M. M. Dubois,  H. H. Helal,                   |
 |  Q. O. Hill, L. P. Lee, J.-H. Li, D. D. O`Regan,              |
 |  M. J. S. Phipps, C. J. Pickard, M. I. J. Probert,            |
 |  L. Ratcliff, M. Robinson, A. Ruiz Serrano, J. S. Spencer,    |
 |  G. Teobaldi, V. Vitale, K. A. Wilkinson and                  |
 |  T. J. Zuehlsdorff                                            |
 |                                                               |
 |                                   Copyright (c) 2004-2014     |
 |                                                               |
 |  Please cite:                                                 |
 |  "Introducing ONETEP: Linear-scaling density functional       |
 |   simulations on parallel computers".                         |
 |   C.-K. Skylaris, P. D. Haynes, A. A. Mostofi, M. C. Payne.   |
 |   J. Chem. Phys. 122 084119 (2005).                           |
 |                                                               |
 |          in all publications arising from your use of ONETEP. |
 |                                                               |
 +---------------------------------------------------------------+
 |                                                               |
 |   ONETEP is based on developments described in the following  |
 |   publications:                                               |
 |                                                               |
 |  "Nonorthogonal generalized Wannier function pseudopotential  |
 |   plane-wave method".                                         |
 |   C.-K. Skylaris, A. A. Mostofi, P. D. Haynes, O. Dieguez,    |
 |   M. C. Payne.                                                |
 |   Phys. Rev. B 66 035119 (2002).                              |
 |                                                               |
 |  "Preconditioned iterative minimization for linear-scaling    |
 |   electronic structure calculations".                         |
 |   A. A. Mostofi, P. D. Haynes, C.-K. Skylaris, M. C. Payne.   |
 |   J. Chem. Phys. 119(17), pp.8842-8848 (2003).                |
 |                                                               |
 |  "Total-energy calculations on a real space grid with         |
 |   localized functions and a plane-wave basis".                |
 |   A. A. Mostofi, C.-K. Skylaris, P. D. Haynes, M. C. Payne.   |
 |   Comput. Phys. Commun. 147, pp.788-802 (2002).               |
 |                                                               |
 |  "Accurate kinetic energy evaluation in electronic structure  |
 |   calculations with localized functions on real space grids"  |
 |   C.-K. Skylaris, A. A. Mostofi, P. D. Haynes, C. J. Pickard, |
 |   M. C. Payne.                                                |
 |   Comput. Phys. Commun. 140, pp.315-322 (2001).               |
 |                                                               |
 |  "Accurate ionic forces and geometry optimization in linear-  |
 |   scaling density-functional theory with local orbitals"      |
 |   N. D. M. Hine, M. Robinson, P. D. Haynes, C.-K. Skylaris,   |
 |   M. C. Payne, and A. A. Mostofi.                             |
 |   Phys. Rev. B 83 195102 (2011).                              |
 |                                                               |
 +---------------------------------------------------------------+

Job started: 09-03-2015 20:36 (-0000)
 
If your calculation crashes here, before "Reading parameters..."
is displayed, then your stack size is insufficient.
If so, use "ulimit -s unlimited" at runtime.

Reading parameters from file "water.dat" ...... done
Running on 1 processor.
There are   1 MPI processes running on the same node as the root process.
Each MPI process is using: 
             1 threads for simulation cell FFTs.
             1 threads for parallel FFT box operations.
             1 threads for loops over batched FFT box operations.
             1 threads in other parallel regions.
 
Reading geometry and species blocks from file "water.dat" ...    
  Number of PPD points along a3 set to 1 from input file.
... done
-------------------------------------------------------------------------------
---------------------------- RUN-TIME PARAMETERS ------------------------------
-------------------------------------------------------------------------------
task                         : SINGLEPOINT *! Type of calculation (String)      
cutoffenergy                 : 14.6995976898129      hartree *! Plane wave kine 
kernelcutoff                 : 1000.00000000000      bohr *! Density kernel rad 
xcfunctional                 : PBE *! Exchange-correlation functional (String)  
libxcxfuncid                 : 0 *! Functional identifier for which exchange fu 
libxccfuncid                 : 0 *! Functional identifier for which correlation 
charge                       : 0.000000000000000E+000 *! The total charge of th 
spin                         : 0 *! Total spin of system (Integer)              
spinpolarized                : F *! Switch for spin polarisation (Boolean)      
spinpolarised                : F *! Switch for spin polarisation (Boolean)      
constantefield               : 0.0000000000     0.0000000000     0.0000000000 * 
fftboxpref                   : 0 0 0 *! Preferred FFT box dimensions (String)   
ppdnpoints                   : 0 0 1 *! PPD edge length in grid points for each 
psincspacing                 : 0.0 0.0 0.0 *! PSINC grid spacing in atomic unit 
oldinput                     : F *! Read old-format input file (Boolean)        
develcode                    : *! For development code only (String)            
positionsxyzfile             : *! .xyz file to read positional data from (Strin 
positionsintermediatexyzfile : *! .xyz file to read positional data for interme 
positionsproductxyzfile      : *! .xyz file to read positional data for product 
nnho                         : F *! Initialise NGWFs to nonorthogonal natural h 
ngwfhalo                     : -1.00000000000000      bohr *! Halo extension to 
nonscforces                  : T *! Include non self-consistent forces due to N 
externalpressure             : 0.000000000000000E+000 ha/bohr**3 *! External ap 
smoothingfactor              : 5.00000000000000 *! Smoothing factor in volume t 
isosurfacecutoff             : 5.000000000000000E-004 *! Isosurface cutoff in v 
maxitpalsermano              : 50 *! Maximum number of iterations for Palser-Ma 
maxitkernelocccheck          : 0 *! Maximum number of kernel resets after occup 
maxitpen                     : 3 *! Max number of penalty functional iterations 
penparam                     : 4.00000000000000 *! Penalty functional parameter 
minitlnv                     : 10 *! Min number of LNV iterations (Integer)     
maxitlnv                     : 10 *! Max number of LNV iterations (Integer)     
lnvthresholdorig             : 1.000000000000000E-009 *! LNV convergence thresh 
lnvcgtype                    : LNV_FLETCHER *! Type of CG coefficient for LNV d 
lnvcgmaxstep                 : 3.00000000000000 *! Maximum length of trial step 
exactlnv                     : T *! Use original LNV algorithm (Boolean)        
oldlnv                       : F *! Use LNV algorithm backwards compatible pre  
lnvchecktrialsteps           : T *! Check stability of kernel at each trial ste 
kerfix                       : 1 *! Density kernel fixing approach (Integer)    
maxitkernelfix               : 3 *! Maximum # iterations of Penalty Functional  
initialdensrealspace         : T *! Construct initial density in real space fro 
kerneldiissize               : 10 *! Max number of kernels saved during kernel  
kerneldiismaxit              : 25 *! Max number of kernel DIIS iterations (Inte 
kerneldiisthreshold          : 1.000000000000000E-009 *! Density mixing converg 
kerneldiislineariter         : 5 *! Number of linear mixing iterations (Integer 
kerneldiiscoeff              : 0.100000000000000 *! Coefficient for the input k 
kerneldiisconvcriteria       : 1000 *! Density mixing convergence criteria (Str 
kerneldiislshift             : 1.00000000000000      hartree *! The initial val 
kerneldiislsiter             : 0 *! Maximum Level shifting iteration (Integer)  
kerneldiisscheme             : NONE *! Select scheme for kernel-diis (String)   
edft                         : F *! Use Ensemble-DFT method to optimise the ker 
edftmaxit                    : 10 *! Maximum number of EDFT iterations to optim 
edftmaxstep                  : 1.00000000000000 *! Maximum step during EDFT lin 
edftsmearingwidth            : 3.166811429000000E-003 hartree *! Occupancy smea 
edftfreeenergythres          : 1.000000000000000E-006 hartree *! Convergence th 
edftenergythres              : 1.000000000000000E-004 hartree *! Convergence th 
edftentropythres             : 1.000000000000000E-004 hartree *! Convergence th 
edftrmsgradientthres         : 1.000000000000000E-004 *! Convergence threshold  
edftcommutatorthres          : 1.000000000000000E-005 hartree *! Convergence th 
edftfermithres               : 1.000000000000000E-003 hartree *! Convergence th 
edftwriteocc                 : F *! Generate file with smeared occupancies (Boo 
edftextrabands               : -1 *! Number of additional MOs with non-zero occ 
eigensolverorfac             : 1.000000000000000E-004 *! Precision to which the 
eigensolverabstol            : 1.000000000000000E-009 *! Precision to which the 
writehamiltonian             : F *! Save current Hamiltonian matrix in a file ( 
readhamiltonian              : F *! Read current Hamiltonian matrix from a file 
ngwfcgrotate                 : F *! Rotate density kernel during NGWF optimizat 
edftroundevals               : -1 *! Round EDFT eigenvalues to N decimal figure 
maxitngwfcg                  : 100 *! Max number of NGWF conjugate gradients (C 
ngwfcgtype                   : NGWF_FLETCHER *! Type of CG coefficient for NGWF 
ngwfcgmaxstep                : -8.00000000000000 *! Maximum length of trial ste 
eleccgmax                    : 3 *! Number of NGWF iterations to reset CG (Inte 
precondscheme                : TETER *! Recip-space preconditioning scheme (Str 
kzero                        : 3.00000000000000      1/bohr *! KE preconditioni 
rprecond                     : 2.00000000000000      bohr *! Radial cut-off for 
precondrecip                 : T *! Recip-space KE preconditioning (Boolean)    
precondreal                  : F *! Real-space KE preconditioning (Boolean)     
smoothscheme                 : NONE *! Smoothing scheme for the NGWF gradients  
rsmooth                      : 1.50000000000000      bohr *! Radius of the unsh 
ksmooth                      : 5.00000000000000      1/bohr *! Characteristic w 
occmix                       : 0.250000000000000 *! Mix fraction of occupancy p 
kernelupdate                 : F *! Update density kernel during NGWF line sear 
kernelchristoffelupdate      : F *! Update density kernel during NGWF line sear 
maxithotelling               : 100 *! Number of Hotelling iteration per NGWF ch 
maxresidhotelling            : 1.000000000000000E-012 *! Max allowed value in H 
rmskernelmeasure             : F *! Use root mean squared measure of [K,H] comm 
maxitngwfdiis                : 0 *! Max number of NGWF DIIS steps (Integer)     
ngwfdiissize                 : 4 *! Max size of the DIIS iterative subspace (In 
ngwfdiisreset                : 8 *! Max number of iteration for the resetting o 
ngwfdiismaxstep              : 2.00000000000000 *! Max length of trial step for 
ngwfthresholdorig            : 1.837500000000000E-006 *! NGWF convergence thres 
elecenergytol                : 3.674899422453221E-005 hartree *! Tolerance on t 
elecforcetol                 : -1.000000000000000E-003 ha/bohr *! Tolerance on  
ngwfmaxgrad                  : -2.000000000000000E-005 *! Maximum permissible v 
deltaeconv                   : T *! Use consecutive energy gains as a criterion 
kernelforceconv              : F *! Force density kernel convergence on last NG 
fftboxbatchsize              : 16 *! Number of NGWFs in fftbox batches (Integer 
densethreshold               : 0.400000000000000 *! Threshold for matrix segmen 
commsgroupsize               : -1 *! Number of nodes in a group (determines com 
ovlpfornonlocal              : F *! Overlap sparsity for nonlocal (Boolean)     
usespacefillingcurve         : T *! Re-arrange atoms according to space-filling 
corehamdenskernguess         : T *! Initial guess for density kernel from core  
checkatoms                   : T *! Check atoms on top of each other (Boolean)  
locpotscheme                 : FULL *! Scheme for evaluating local potential ma 
smoothprojectors             : -0.400000000000000 *! Halfwidth of Gaussian filt 
smoothlocpspot               : -0.400000000000000 *! Halfwidth of Gaussian filt 
oddpsincgrid                 : F *! Force odd number of points in simcell psinc 
evenpsincgrid                : F *! Force even number of points in simcell psin 
realspaceprojectors          : F *! Whether to evaluate and store projectors in 
projectorsprecalculate       : T *! Whether to pre-calculate the nonlocal proje 
outputdetail                 : VERBOSE *! Level of output detail (String)       
pawoutputdetail              : DEFAULT *! Level of output detail for PAW: BRIEF 
mdoutputdetail               : DEFAULT *! Level of output detail for MD: BRIEF, 
timingslevel                 : 1 *! Level of timings output: 0(none) 1(nodes su 
timingsorder                 : TIME *! Sorting order of timings (String)        
runtime                      : -1.00000000000000 *! The maximum allocated run t 
writeparams                  : T *! Output runtime parameters at startup (Boole 
esdfdump                     : T *! Dump all runtime parameters at startup (Boo 
writeforces                  : T *! Write ionic forces (Boolean)                
writepositions               : T *! Write ionic positions each geometry or MD s 
writevelocities              : F *! Write ionic velocities each MD step (Boolea 
writexyz                     : F *! Output coordinates in .xyz file (Boolean)   
printqc                      : F *! Print Quality Control information (Boolean) 
cubeformat                   : T *! Allow .cube format for plot outputs (Boolea 
dxformat                     : F *! Allow .dx format for plot outputs (Boolean) 
dxformatcoarse               : F *! Output only points on the coarse grid (Bool 
dxformatdigits               : 7 *! Number of significant digits in .dx output  
grdformat                    : F *! Allow .grd format for plot outputs (Boolean 
writedensityplot             : F *! Write the charge density in plotting format 
writepolarisationplot        : F *! Write the polarisation density in plotting  
writengwfplot                : F *! Write NGWFs in plotting format (Boolean)    
writengwfgradplot            : F *! Write NGWF Gradients in plotting format (Bo 
writengwfradial              : 0 *! Write NGWFs radial distributions (Integer)  
writengwfgradradial          : 0 *! Write NGWFs gradients radial distributions  
writeradialstep              : 5.000000000000000E-003 bohr *! Define the grid s 
writeradialsmear             : 1.000000000000000E-002 bohr *! Define the gaussi 
writeinitialradialngwfs      : F *! Controls output of radial NGWF plots from a 
readdenskern                 : F *! Read density kernel restart information (Bo 
writedenskern                : T *! Write density kernel restart information (B 
readtightboxngwfs            : F *! Read in universal tightbox NGWFs restart in 
writetightboxngwfs           : T *! Write in universal tightbox NGWFs restart i 
writeconvergeddkngwfs        : F *! Only write Density Kernel and NGWFs upon co 
readswngwfs                  : F *! Read NGWFs restart information in spherical 
writeswngwfs                 : F *! Write NGWFs restart information in spherica 
writemaxl                    : 3 *! Maximum angular momentum number when writin 
readmaxl                     : 3 *! Maximum angular momentum number when readin 
extransw                     : 0 *! Maximum number of zeros of the sph Bessel f 
paw                          : F *! Uses a PAW construction to find correct cor 
finegridscale                : 2.00000000000000 *! Ratio of size of fine grid t 
dblgridscale                 : 2.00000000000000 *! Ratio of charge density / po 
augfuncsrecip                : T *! Construct Augmentation functions in recip s 
pseudopath                   : *! Path to pseudopotentials (String)             
dispersion                   : 0 *! Select dispersion correction (String)       
vdwdcoeff                    : -1.00000000000000 *! Replacement VDW damping coe 
hubbardmaxiter               : 10 *! Maximum number of DFT+U projector optimisa 
hubbardenergytol             : 1.000000000000000E-008 hartree *! Energy toleran 
hubbardconvwin               : 2 *! Energy convergence window when using DFT+U  
hubbardprojmixing            : 0.000000000000000E+000 *! Proportion of old Hubb 
hubbardfunctional            : 1 *! DFT+U energy functional to use (Integer)    
hubbardtensorcorr            : 1 *! DFT+U projector tensorial correction to use 
hubbardngwfspinthreshold     : 2.000000000000000E-005 *! NGWF RMS  gradient thr 
hubbardscfonthefly           : F *! Carry out on-the-fly HUBBARDSCF with new pr 
hubbardreadprojectors        : F *! Logical to read Hubbard-projectors from fil 
cdftatomcharge               : F *! Perform an ATOM-CHARGE-constrained CDFT sim 
cdftatomspin                 : F *! Perform an ATOM-SPIN-constrained CDFT simul 
cdftgroupchargediff          : F *! Perform a GROUP-CHARGE-DIFFERENCE-constrain 
cdftgroupspindiff            : F *! Perform a GROUP-SPIN-DIFFERENCE-constrained 
cdftgroupchargeacceptor      : F *! Perform an ACCEPTOR GROUP-CHARGE-constraine 
cdftgroupchargedonor         : F *! Perform a DONOR GROUP-CHARGE-constrained CD 
cdftgroupspinacceptor        : F *! Perform an ACCEPTOR GROUP-SPIN-constrained  
cdftgroupspindonor           : F *! Perform a DONOR GROUP-SPIN-constrained CDFT 
cdfthubbard                  : F *! Perform a constrained-DFT+U simulation (Boo 
cicdft                       : F *! Perform a CONFIGURATION-INTERACTION CDFT si 
cdftprintallocc              : F *! Logical to have the occupancy-matrix of all 
cdftreadprojectors           : F *! Logical to read cDFT-projectors from file ( 
cdftgroupchargeuponly        : F *! Logical to constrain only UP electrons (Boo 
cdftgroupchargedownonly      : F *! Logical to constrain only UP electrons (Boo 
cdftmultiproj                : F *! Logical to use mutiple angular-momentum pro 
cicdftnumconf                : 0 *! Number of cDFT-configurations for CI_CDFT s 
cdftgroupchargedifftarget    : 0.000000000000000E+000 *! Targeted CHARGE differ 
cdftgroupspindifftarget      : 0.000000000000000E+000 *! Targeted SPIN differen 
cdftchargeacceptortarget     : 0.000000000000000E+000 *! Targeted group-CHARGE  
cdftchargedonortarget        : 0.000000000000000E+000 *! Targeted group-CHARGE  
cdftspinacceptortarget       : 0.000000000000000E+000 *! Targeted group-SPIN fo 
cdftspindonortarget          : 0.000000000000000E+000 *! Targeted group-SPIN fo 
maxitcdftucg                 : 60 *! Max number of cdFT-U conjugate gradients ( 
cdftcgtype                   : NGWF_FLETCHER *! Type of CG coefficient for CDFT 
cdftcgthreshold              : 1.000000000000000E-003 *! RMS gradient convergen 
cdfttriallength              : 0.100000000000000 *! Trial length for cDFT line- 
cdftcgmax                    : 5 *! Number of U-opt iterations to reset CG (Int 
cdftmaxgrad                  : 1.000000000000000E-003 *! Maximum permissible va 
cdftelecenergytol            : -1.000000000000000E-004 hartree *! Tolerance on  
cdftcgmaxstep                : 50.0000000000000 *! Maximum length of trial step 
cdftguru                     : F *! Let the user signal she/he does not need he 
cdftcontinuation             : F *! Logical to restart (from the *.cdft file) a 
cdfttight                    : F *! Logical to activate tight NGWFs-cDFT optimi 
cdftwritepotentials          : T *! Logical to write cDFT-potentials into file  
coulombcutoffradius          : 0.000000000000000E+000 bohr *! Radius of sphere  
coulombcutofflength          : 0.000000000000000E+000 bohr *! Length of cylinde 
coulombcutofftype            : NONE *! Type of cutoff coulomb interaction: NONE 
coulombcutoffwriteint        : F *! Write real-space cutoff Coulomb interaction 
pbccorrectioncutoff          : 0.000000000000000E+000 bohr *! alpha*L cutoff pa 
doproperties                 : T *! Allow calculation of properties (Boolean)   
numeigenvalues               : 6 *! Number of energy and occupancy eigenvalues  
homodensplot                 : -1 *! Number of squared MOs to plot from HOMO an 
lumodensplot                 : -1 *! Number of squared MOs to plot from LUMO an 
homoplot                     : -1 *! Number of MOs to plot from HOMO and lower  
lumoplot                     : -1 *! Number of MOs to plot from LUMO and higher 
dossmear                     : 3.674899422453221E-003 hartree *! Half width of  
ldossmear                    : 3.674932438755288E-003 hartree *! Lorentzian bro 
popncalculate                : F *! Allow population analysis (Boolean)         
popnbondcutoff               : 5.66917840375065      bohr *! Bond length cutoff 
ngwfanalysis                 : F *! Perform NGWF analysis (Boolean)             
polarisationcalculate        : F *! Allow calculation of polarisation (Boolean) 
spreadcalculate              : F *! Calculate spread of NGWFs (Boolean)         
anharmoniccalculate          : F *! Active the calculation of the IR spectrum ( 
geommodulusest               : 1.700000000000000E-002 ha/bohr**3 *! The estimat 
geomfrequencyest             : 7.600000000000000E-003 hartree *! The estimated  
geomenergytol                : 3.674899422453221E-007 hartree *! Geometry optim 
geomforcetol                 : 5.834023153688738E-004 ha/bohr *! Geometry optim 
geomdisptol                  : 1.889726877774356E-003 bohr *! Geometry optimiza 
geommaxiter                  : 100 *! Maximum number of geometry optimization i 
geomconvergencewin           : 2 *! Geometry optimization convergence tolerance 
geomcontinuation             : F *! Read information for continuation of a prev 
geombackupiter               : 1 *! Number of geometry optimisation iterations  
geomresetdkngwfsiter         : 6 *! Number of geom iterations between resets of 
geomlbfgsmaxupdates          : 30 *! Number of LBFGS update vectors to store (I 
geomlbfgsblocklength         : 30 *! How many updates to store before reallocat 
geomreusedkngwfs             : T *! Re-use density kernel and NGWFs during geom 
geomprintinvhessian          : F *! Write inverse Hessian to standard output (B 
geommethod                   : CARTESIAN *! Method for geometry optimization (S 
geomlbfgs                    : F *! Whether to perform LBFGS rather than BFGS i 
tssearchmethod               : LSTQST *! Specifies method to be used for TS sea 
tssearchlstqstprotocol       : LSTMAXIMUM *! Specifies LSTQST protocol (String) 
tssearchqstmaxiter           : 5 *! Specifies maximum number of QST steps (Inte 
tssearchcgmaxiter            : 20 *! Specifies maximum number of CG steps (Inte 
tssearchforcetol             : 5.000000000000000E-003 ha/bohr *! Force toleranc 
tssearchdisptol              : 1.000000000000000E-002 bohr *! Displacement tole 
mdproperties                 : F *! Compute vibrational and IR spectra from MD  
mdrestart                    : F *! Restart MD from backup files (Boolean)      
mddeltat                     : 40.0000000000000      aut *! Molecular dynamics  
mdnumiter                    : 100 *! Maximum number of molecular dynamics iter 
mdresethistory               : 100 *! Reset mixing scheme for initial guess of  
mtsxi                        : F *! Internal thermostat in the multiple time-st 
mtsnstep                     : 1 *! Number of time steps in the multiple time-s 
mtsngwfthreshold             : 5.000000000000000E-004 *! NGWF convergence thres 
mtslnvthreshold              : 5.000000000000000E-006 *! LNV convergence thresh 
mtselecenergytol             : -1.000000000000000E-003 hartree *! Tolerance on  
mtselecforcetol              : -1.000000000000000E-003 ha/bohr *! Tolerance on  
mtsngwfmaxgrad               : -2.000000000000000E-005 *! Maximum permissible v 
mtsmaxitngwfcg               : 50 *! Max number of conjugate gradients iteratio 
mtsminitlnv                  : 5 *! Min number of LNV iterations (Integer)      
mtsmaxitlnv                  : 5 *! Max number of LNV iterations (Integer)      
mtsmaxitpen                  : 3 *! Max number of penalty iterations (Integer)  
mtsmixinc                    : F *! Include the mts correction step in the NGWF 
mixdkntype                   : NONE *! Type of mixing used to build new guess f 
mixdknnum                    : 0 *! Number of coefficients used to build new gu 
mixdkninittype               : NONE *! Type of initialization before MIX_DKN_TY 
mixdkninitnum                : 0 *! Number of steps before extrapolation of the 
mixdknreset                  : 50 *! Number of extrapolation steps between two  
mixngwfstype                 : NONE *! Type of mixing used to build new guess f 
mixngwfsnum                  : 0 *! Number of coefficients used to build new gu 
mixngwfsinittype             : NONE *! Type of initialization before MIX_DKN_TY 
mixngwfsinitnum              : 0 *! Number of steps before extrapolation of the 
mixngwfsreset                : 50 *! Number of extrapolation steps between two  
mixngwfscoeff                : 0.100000000000000 *! Mix the propagated NGWFs wi 
mixlocallength               : 10.0000000000000      bohr *! Max radius for loc 
mixlocalsmear                : 5.00000000000000      bohr *! Radial smearing fo 
condreaddenskern             : F *! Read in conduction density kernel (Boolean) 
condreadtightboxngwfs        : F *! Read in universal tightbox conduction NGWFs 
condfixedshift               : F *! Fixed projected conduction Hamiltonian shif 
condcalcmaxeigen             : T *! Calculate maximum conduction Hamiltonian ei 
condnumstates                : 0 *! Number of conduction states to be optimised 
condmaxitlnv                 : 10 *! Max number of LNV iterations during conduc 
condminitlnv                 : 10 *! Min number of LNV iterations during conduc 
condkernelcutoff             : 1000.00000000000      bohr *! Conduction density 
condinitshift                : 0.000000000000000E+000 hartree *! Initial shifti 
condshiftbuffer              : 0.100000000000000      hartree *! Additional buf 
condnumextrastates           : 0 *! Number of extra conduction states for initi 
condnumextraits              : 0 *! Number of NGWF iterations with extra conduc 
condplotjointorbitals        : T *! Plot orbitals in the joint basis following  
condplotvcorbitals           : T *! Plot orbitals in the val and cond NGWF basi 
condcalcopticalspectra       : F *! Calculate matrix elements for optical absor 
condspeccalcmommatels        : T *! Calculate momentum matrix elements (default 
condspeccalcnonloccomm       : T *! Calculate nonlocal commutator for momentum  
condspeccontderiv            : T *! Calculate non-local commuator using continu 
condspecnonloccommshift      : 1.000000000000000E-004 *! Finite difference shif 
condspecprintmatels          : F *! Write optical matrix elements to file (Bool 
condspecoptsmear             : 3.674932438755288E-003 hartree *! Half width of  
condspecscissorop            : 0.000000000000000E+000 hartree *! Scissor operat 
condcalceels                 : F *! Calculate matrix elements for electron ener 
lrtddftcalculate             : F *! enables LR-TDDFT calculation (Boolean)      
lrtddftnumstates             : 1 *! Sets the number of excitation energies we w 
lrtddftcgthreshold           : 1.000000000000000E-006 *! sets convergence toler 
lrtddftpenaltytol            : 1.000000000000000E-008 *! sets the convergence t 
lrtddftmaxitpen              : 20 *! sets the maximum number of iterations for  
lrtddftmaxitcg               : 60 *! sets the maximum number of iterations for  
lrtddftresetcg               : 100 *! sets the number of iterations after which 
lrtddftkernelcutoff          : 1000.00000000000      bohr *! sets cutoff on the 
lrtddftwritedensities        : T *!Determines whether to write out TDDFT respon 
lrtddftwritekernels          : F *! writes out response kernels after each iter 
lrtddftrestart               : F *! Restart flag for the LR_TDDFT option (Boole 
lrtddfttriplet               : F *! DEtermines if triplet states are calculated 
lrtddftprojector             : T *! Use projector onto unoccupied subspace (Boo 
lrtddftjointset              : T *! Use joint set to represent cond states (Boo 
lrtddftpreopt                : T *! Refine starting guess in preoptimisation ro 
lrtddftpreoptiter            : 20 *! Number of preoptimisation iterations (Inte 
lrtddftanalysis              : F *! Do a full O(N^3) analysis of TDDFT transiti 
etransbulk                   : F *! Compute electronic transport coefficients ( 
etranslcr                    : F *! Compute electronic transport coefficients ( 
etranssameleads              : F *! Use same description for all leads (Boolean 
etranswritehs                : F *! Write hamiltonian corresponding to transpor 
etransecmplx                 : 1.000000000000000E-006 hartree *! Imaginary part 
etransemax                   : 0.200000000000000      hartree *! Highest energy 
etransemin                   : -0.200000000000000      hartree *! Lowest energy 
etransenum                   : 50 *! Number of energy points for the calculatio 
etranseref                   : 0.000000000000000E+000 hartree *! Reference ener 
etranserefmethod             : DIAG *! The method used to determine the referen 
etranscalculateleadmu        : F *! Calculate the lead chemical potentials (Boo 
etransleadnkpoints           : 32 *! Number of kpoints to use to determine lead 
etransleaddisptol            : 1.00000000000000      bohr *! The maximum accept 
anhqcfactor                  : HARMONIC *! Quantum correction factor in IR spec 
anhacffactor                 : NONE *! Prefactor for the autocorrelation functi 
anhtype                      : IR_CALCULATION *! Describe the type of calculati 
anhfirstiter                 : 0 *! First md iteration to include in the autoco 
anhlastiter                  : 0 *! Last md iteration to include in the autocor 
anhmdtemp                    : 0.000000000000000E+000 kelvin *! Temperature in  
anhplotfirstfreq             : 0.000000000000000E+000 1/cm *! First freq to be  
anhplotlastfreq              : 0.000000000000000E+000 1/cm *! Last freq to be s 
anhplotall                   : F *! Plot the whole IR spectrum (Boolean)        
anhapplyfilter               : F *! Apply the gaussian filter (Boolean)         
phononfarmingtask            : 0 *! Operation to perform for phonon calc (for t 
phononsampling               : 1 *! Default number of sampling points for finit 
phononvibfree                : 7 *! Default allowed vibrational degrees of free 
phononfinitedisp             : 0.100000000000000      bohr *! Amplitude of the  
phononfmax                   : 5.000000000000000E-003 ha/bohr *! Maximum force  
phononenergycheck            : F *! Check total energy of system doesn't decrea 
phonontmin                   : 0.000000000000000E+000 hartree *! Lower bound of 
phonontmax                   : 2.000000000000000E-003 hartree *! Upper bound of 
phonondeltat                 : 1.500000000000000E-005 hartree *! Temperature st 
phononminfreq                : 3.600000000000000E-006 hartree *! Discard phonon 
phononwriteeigenvecs         : F *! Write phonon mode eigenvectors to file (Boo 
phononanimatescale           : 1.00000000000000 *! Scaling factor for phonon mo 
phonondosmin                 : 0.000000000000000E+000 *! Lower bound of frequen 
phonondosmax                 : 1000.00000000000 *! Upper bound of frequency ran 
phonondosdelta               : 10.0000000000000 *! Frequency step (in cm^-1) fo 
phonondos                    : T *! Calculate phonon DOS from MP grid and write 
phononsk                     : F *! Use Slater-Koster style interpolation for q 
bskpointpathspacing          : 0.188972700000000      1/bohr *! K-point spacing 
bsnumeigenvalues             : -1 *! Num of energy and occ. eigenvalues to prin 
bsunfold                     : 0 0 0 *! Number of times to unfold Brillouin zon 
bsmethod                     : TB *! Method to use: 'KP' or 'TB' (String)       
dotddft                      : F *! Allow Time-Dependent DFT calculation (Boole 
tddftmaximumenergy           : 1.00000000000000      hartree *! Desired maximum 
tddftresolution              : 1.000000000000000E-003 hartree *! Desired resolu 
tddftpropagationmethod       : CRANKNICHOLSON *! Method used to integrate von N 
tddftsparsitylevel           : 0 *! Matrix sparsity when computing propagators  
tddfttammdancoff             : F *! Invoke Tamm-Dancoff decoupling approximatio 
tddftdipolekickstrength      : 0.0 0.0 0.0 *! Maximum allowed phase shift in TD 
tddftxcfunctional            : LDA *! Exchange-correlation functional for TDDFT 
tddfthamiltonianmixing       : 0 *! Order of polynomial extrapolation to H(t +  
tddftdamping                 : 0.000000000000000E+000 hartree *! Energy smearin 
tddftenforcedidempotency     : F *! Project out at each timestep that part of c 
tddftmaxithotelling          : 50 *! Number of Hotelling iteration per propagat 
tddftmaxresidhotelling       : 1.000000000000000E-018 *! Max allowed value in H 
tddftinvoverlapexact         : T *! Renew inverse overlap with O N^3 algorithm  
isimplicitsolvent            : F *! Use implicit solvent? (Boolean)             
issmearedionrep              : F *! Implicit solvent: use smeared ions for elec 
isseparaterestartfiles       : F *! If true, dielectric cavity will be construc 
isautosolvation              : F *! If true, vacuum calculation will automatica 
isincludecavitation          : F *! Implicit solvent: include cavitation energy 
isdensitythreshold           : 7.800000000000000E-004 *! Implicit solvent: rho_ 
issolvationbeta              : 1.30000000000000 *! Implicit solvent: beta param 
isbulkpermittivity           : 1.00000000000000 *! Implicit solvent: eps_inf pa 
ismultigriddefecterrortol    : 1.000000000000000E-002 *! Implicit solvent: stop 
ismultigriderrortol          : 1.000000000000000E-005 *! Implicit solvent: stop 
issmearedionwidth            : 0.800000000000000      bohr *! Implicit solvent: 
iscorewidth                  : 1.20000000000000      bohr *! Implicit solvent:  
issurfacethickness           : 2.000000000000000E-004 *! Implicit solvent: thic 
issolventsurfacetension      : 4.762400000000000E-005 ha/bohr**2 *! Implicit so 
ismultigridmaxiters          : 100 *! Implicit solvent: max number of iteration 
ismultigridnlevels           : 4 *! Implicit solvent: number of levels in multi 
isdiscretizationorder        : 8 *! Implicit solvent: discretization order (2nd 
isbccoarseness               : 5 *! Open BCs: controls boundary condition coars 
isbcsurfacecoarseness        : 1 *! Open BCs: controls boundary condition coars 
isbcthreshold                : 1.000000000000000E-009 *! Open BCs: controls bou 
ischecksolvenergygrad        : F *! Implicit solvent: sanity check the energy g 
issolvationmethod            : DIRECT *! Implicit solvent: direct or corrective 
isdielectricmodel            : FIX_INITIAL *! Implicit solvent: how the cavity  
isdielectricfunction         : FGF *! Implicit solvent: how the cavity is deter 
issolvationoutputdetail      : NONE *! Implicit solvent: controls extra output  
openbcionion                 : F *! Force open BCs in ion-ion energy (Boolean)  
openbchartree                : F *! Force open BCs in Hartree potential (Boolea 
openbcpspot                  : F *! Force open BCs in local pseudopotential (Bo 
openbcpspotfinetunenptsx     : 100000 *! Open BCs in local pseudo, npts_x param 
openbcpspotfinetunealpha     : 0.300000000000000 *! Open BCs in local pseudo, a 
openbcpspotfinetunef         : -1 *! Open BCs in local pseudo, fineness paramet 
hfxintegration               : 2 *! Variant of the numerical pointwise approach 
hfxcutoff                    : 1000.00000000000      bohr *! HFx cutoff radius  
hfxnlppforexchange           : F *! Give exchange matrix same sparsity as non-l 
hfxradialsegments            : 50 *! Number of radial segments in vmatrix evalu 
hfxangularsegments           : 50 *! Number of angular segments in vmatrix eval 
hfxcheborder                 : 16 *! Order for Chebyshev interpolation (Integer 
hfxchebintervals             : 14 *! Number of intervals Chebyshev interpolatio 
hfxchebabatchsize            : 10 *! Number of SW expansions buffered (Integer) 
hfxchebbbatchsize            : 10 *! Number of SW pot expansions buffered (Inte 
hfxmaxl                      : 4 *! Maximum quantum number l used for SW expans 
hfxmaxzeros                  : 10 *! Maximum number of Bessel zeros used for SW 
hfxreadvmatrix               : F *! Read restart information for the V matrix ( 
hfxwritevmatrix              : F *! Write restart information for the V matrix  
hfxreadxmatrix               : F *! Read restart information for the X matrix ( 
hfxwritexmatrix              : F *! Write restart information for the X matrix  
hfxdebug                     : F *! Debug HFx? (Boolean)                        
hfxmetric                    : ELECTROSTATIC *! Electrostatic or overlap metric 
hfxoverlapindirect           : F *! Inversions done for overlap metric (Boolean 
hfximproveinverse            : F *! Use Hotelling improvement when calculating  
hfxcthreshold                : 0.000000000000000E+000 *! Absolute magnitude bel 
hfxcachelimitforsnpos        : 1024 *! Max cache size for SWOP-NGWF-product ove 
hfxcachelimitforswops        : 1024 *! Max cache size for SWs or SWpots in PPDs 
hfxcachelimitforwmats        : 1024 *! Max cache size for W-matrices (in MiB) ( 
hfxcachelimitforexpansions   : 1024 *! Max cache size for expansions (tb_swpot_ 
hfxcachelimitforps           : 1024 *! Max cache size for p_beta_delta (in MiB) 
hfxcachelimitforngwfs        : 256 *! Max cache size for remote NGWFs (in MiB)  
hfxcachelimitfordknblks      : 50 *! Max cache size for remote DKN blocks (in M 
zerototalforce               : T *! Subtract avg force to ensure Newton's 3rd l 
ddeccalculate                : F *! Performs DDEC charge analysis (Boolean)     
ddecwriterad                 : F *! Write DDEC partial radial density for each  
ddecclassicalhirshfeld       : F *! DDEC range of IH (+/-) ionic reference stat 
ddecradnpts                  : 100 *! Number of spherical shells per atom (Inte 
ddecradrcut                  : 10.0000000000000      bohr *! Radius of largest  
ddecmaxit                    : 2000 *! Maximum number of DDEC iterations (Integ 
ddecconvthreshold            : 2.000000000000000E-005 *! DDEC charge convergenc 
ddecihfraction               : 0.214285714285714 *! DDEC IH fraction (Double Pr 
ddeczerothreshold            : 1.000000000000000E-007 *! DDEC threshold to negl 
ddecihionicrange             : 2 *! DDEC range of IH (+/-) ionic reference stat 
ddecatomsolvemaxit           : 480 *! Maximum number of iterations for the atom 
ddecrcompmaxit               : 50 *! Maximum number of iterations for finding r 
ddectargetradius             : 11.5000000000000      bohr *! DDEC force target  
ddecrcompeconv               : 5.000000000000000E-008 hartree *! Energy converg 
ddecwritercomp               : F *! Write compensated ionic densities for all r 
ddecrefdensinit              : T *! Initialize ISA guess densities as neutral r 
ddecrenormalizerefdens       : F *! Renormalize reference densities (Boolean)   
ddecmultipole                : F *! Compute DDEC dipoles and quadrupoles (Boole 
ddecmoment                   : F *! Compute DDEC moment (Boolean)               
ddecmomentorder              : 1 *! Order of DDEC moment (Integer)              
ddecinterpraddens            : F *! Interpolate converged radial densities for  
ddecavgrad                   : F *! Compute expected radius of each atom based  
ddecminshelldens             : 100.000000000000 *! Minimum number of points per 
ddecrmse                     : F *! Calculate DDEC point charge RMS V(r) (Boole 
writenbo                     : F *! Performs Natural Population Analysis and wr 
nboinitlclowdin              : T *! Performs atom-centered Lowdin symmetric ort 
nbowritelclowdin             : F *! Write a GENNBO FILE.47 containing all the a 
nbowritenpacomp              : F *! Writes individual NAO population into the s 
nboscaledm                   : T *! Scales density matrix in the FILE.47 output 
nbowritedipole               : F *! Writes dipole matrix to FILE.47 (Boolean)   
nboscalespin                 : T *! Whether or not partial density matrices for 
nbopnaoanalysis              : F *! S/P/D/F CHARACTER ANALYSIS ON PNAO. (Boolea 
nboaopnaoscheme              : ORIGINAL *! AO to PNAO scheme to use in generati 
plotnbo                      : F *! Plot NBO's orbitals from FILE.xx as defined 
nboplotorbtype               : *! Type of GENNBO-generated orbital to plot. (St 
threadsmax                   : 1 *! Number of threads in outer loops (Integer)  
threadsnumfftboxes           : 1 *! Number of threads to use in OpenMP-parallel 
threadsperfftbox             : 1 *! Number of nested threads used for FFT box o 
threadspercellfft            : 1 *! Number of threads to use in OpenMP-parallel 
threadsnummkl                : 1 *! Number of threads to use in OpenMP-parallel 
%block positionsabs          : *! Cartesian positions for each atom (Block)     
O 47.82274073160245      47.25667645460973      45.98252560975496               
H 49.02657873213836      46.37388321646128      47.05079896262087               
H 48.98893597357800      48.00111084095992      44.77769116409311               
%endblock positionsabs       : *! Cartesian positions for each atom (Block)     
%block latticecart           : *! The simulation cell lattice vectors (Block)   
94.486315649999995      0.000000000000000       0.000000000000000               
0.000000000000000       94.486315649999995      0.000000000000000               
0.000000000000000       0.000000000000000       94.486315649999995              
%endblock latticecart        : *! The simulation cell lattice vectors (Block)   
%block species               : *! Species information (symbol, atomic number, n 
O O 8 4 6.0                                                                     
H H 1 2 6.0                                                                     
%endblock species            : *! Species information (symbol, atomic number, n 
%block speciespot            : *! Pseudopotential name for each species (Block) 
O O_00PBE_OP.recpot                                                             
H H_00PBE_OP.recpot                                                             
%endblock speciespot         : *! Pseudopotential name for each species (Block) 
%block speciesatomicset      : *! Atomic set name for each species (Block)      
O SOLVE                                                                         
H SOLVE                                                                         
%endblock speciesatomicset   : *! Atomic set name for each species (Block)      
%block speciesconstraints    : *! Ionic constraints for each species (Block)    
O NONE                                                                          
H NONE                                                                          
%endblock speciesconstraints : *! Ionic constraints for each species (Block)    
-------------------------------------------------------------------------------
-------------------------------------------------------------------------------

<<<<<<<<<<<<<<<<<<<<<<<<< Pseudopotential information >>>>>>>>>>>>>>>>>>>>>>>>>
File: O_00PBE_OP.recpot [ 2001 points up to Gmax=  52.9 (1/bohr)]
  Atomic number:  8;  ionic charge:  6.000000
    Shell 1: l = 1; rc = 1.54 bohr
File: H_00PBE_OP.recpot [ 2001 points up to Gmax=  52.9 (1/bohr)]
  Atomic number:  1;  ionic charge:  1.000000
    Local potential
<<<<<<<<<<<<<<<<<<<<<<<<<<<<<<<<<<<<<<< >>>>>>>>>>>>>>>>>>>>>>>>>>>>>>>>>>>>>>>

------------------------- Atom counting information ---------------------------
Symbol    Natoms    Nngwfs    Nprojs
  O          1         4         3
  H          2         4         0
.......   ......    ......    ......
Totals:      3         8         3
-------------------------------------------------------------------------------
 
============================== PSINC grid sizes ================================
                      Simulation cell:  132 x 132 x 132
                              FFT-box:   55 x  55 x  55
                                  PPD:    6 x   6 x   1
Grid space d1=  0.715805421591a0 (KE cutoff=  14.82566Eh = 403.42673eV)
Grid space d2=  0.715805421591a0 (KE cutoff=  14.82566Eh = 403.42673eV)
Grid space d3=  0.715805421591a0 (KE cutoff=  14.82566Eh = 403.42673eV)
================================================================================

********************** Fourier parallelisation information *********************
       Coarse grid (whole simulation cell) dimensions:    132   132   132
          Real-space ('12') slabs/node (min max mean):    132   132   132
         Recip-space ('23') slabs/node (min max mean):     67    67    67
********************************************************************************

********************** Fourier parallelisation information *********************
       Double grid (whole simulation cell) dimensions:    264   264   264
          Real-space ('12') slabs/node (min max mean):    264   264   264
         Recip-space ('23') slabs/node (min max mean):    133   133   133
********************************************************************************

Determining parallel strategy ...
... using space-filling curve
... NGWF load balancing: max      8;  min      8;  average      8
... Projector load balancing: max      3;  min      3;  average      3
... done
Calculating Ewald energy ...
              Ewald: real-space energy =       6.571766
        Ewald: reciprocal-space energy =       0.081892
         Ewald: (sum_charge)**2 Energy =       0.234823
         Ewald: (sum_charge**2) Energy =       0.482986
                          Ewald Energy =       5.935849
Basis initialisation ...
... Atom positions lie inside simulation cell
... NGWF spheres initialised
... Projector spheres initialised
... NGWF tight boxes initialised
... Tight-boxes gathered
... NGWF basis size (local,global):      10676     10676
... Nonlocal pseudopotential projector initialisation
... done

=========================== Sparse matrix information ==========================
                        Overlap matrix filling: 100.00%
                        Density kernel filling: 100.00%
              NGWF-Proj overlap matrix filling: 100.00%
                    Hamiltonian matrix filling: 100.00%
                  NGWF diagonal matrix filling:  37.50%
                             KS matrix filling: 100.00% 
                           KSKS matrix filling: 100.00% 
================================================================================

Sparse matrix initialisation ... done

Atom SCF Calculation for O  : Z (AE atom) =   8 : Z (PS atom) =   6
Config String:
Orbitals (num,occ):  2     2.00 4.00
Orbitals   (num,l):  2        0    1
Real-space Grid (nr,dr,rmax):  637    0.0094339623    6.0000000000
Spherical Bessel Basis (nsws,lmax,cutoff):   25    1   88.1975861389
Confining potential (l,width,scale):  0    3.0000000000  100.0000000000
Confining potential (l,width,scale):  1    3.0000000000  100.0000000000
  1 3216.4518354715   -7.1202816974   10.1554512533   -2.4512395525
  2 1275.3268459984   -3.1443812453   13.3511488054   -3.1747088977
  3  655.6100215422   -2.9485004107   13.5591716205   -3.2265097030
  4  333.4383110991   -2.9071229743   13.6038731329   -3.2393597159
  5  165.9195334793   -2.8936012298   13.6186080893   -3.2442341554
  6   78.8111333398   -2.8876998472   13.6250676297   -3.2465384671
  7   33.5149711848   -2.8848489821   13.6281943061   -3.2476984221
  8    9.9610079041   -2.8834315976   13.6297503547   -3.2482910000
  9   -2.2870418903   -2.8827209226   13.6305310368   -3.2485948083
 10   -8.6560240825   -2.8823635388   13.6309238114   -3.2487507577
 11  -11.9678934703   -2.8821835875   13.6311216658   -3.2488308715
 12  -13.6900650503   -2.8820929160   13.6312213986   -3.2488720574
 13  -14.5855940943   -2.8820472100   13.6312716928   -3.2488932467
 14  -15.0512691430   -2.8820241631   13.6312970640   -3.2489041566
 15  -15.2934201584   -2.8820125389   13.6313098662   -3.2489097782
 16  -15.4193386906   -2.8820066745   13.6313163278   -3.2489126774
 17  -15.4848163341   -2.8820037152   13.6313195901   -3.2489141737
 18  -15.5188647147   -2.8820022215   13.6313212375   -3.2489149466
 19  -15.5365698769   -2.8820014674   13.6313220696   -3.2489153462
 20  -15.5457765642   -2.8820010866   13.6313224901   -3.2489155530
 21  -15.5505640434   -2.8820008943   13.6313227026   -3.2489156600
 22  -15.5530535338   -2.8820007971   13.6313228100   -3.2489157156
 23  -15.5543480695   -2.8820007479   13.6313228644   -3.2489157443
 24  -15.5550212284   -2.8820007231   13.6313228919   -3.2489157593
 25  -15.5553712713   -2.8820007105   13.6313229058   -3.2489157671
 26  -15.5555532937   -2.8820007042   13.6313229129   -3.2489157711
 27  -15.5556479455   -2.8820007009   13.6313229164   -3.2489157732
 28  -15.5556971644   -2.8820006993   13.6313229182   -3.2489157743
 29  -15.5557227583   -2.8820006985   13.6313229191   -3.2489157749
 30  -15.5557360672   -2.8820006981   13.6313229196   -3.2489157752
 31  -15.5557429878   -2.8820006979   13.6313229199   -3.2489157753
 32  -15.5557465865   -2.8820006978   13.6313229200   -3.2489157754
 33  -15.5557484578   -2.8820006977   13.6313229200   -3.2489157755
 34  -15.5557494309   -2.8820006977   13.6313229201   -3.2489157755
 35  -15.5557499369   -2.8820006977   13.6313229201   -3.2489157755
 36  -15.5557502000   -2.8820006976   13.6313229201   -3.2489157755
 37  -15.5557503369   -2.8820006976   13.6313229201   -3.2489157755
 38  -15.5557504080   -2.8820006976   13.6313229201   -3.2489157755
Atom SCF converged after  38 iterations to a total energy of    -15.55575041

Atom SCF Calculation for H  : Z (AE atom) =   1 : Z (PS atom) =   1
Config String:
Orbitals (num,occ):  2     1.00 0.00
Orbitals   (num,l):  2        0    0
Real-space Grid (nr,dr,rmax):  637    0.0094339623    6.0000000000
Spherical Bessel Basis (nsws,lmax,cutoff):   25    0   88.1975861389
Confining potential (l,width,scale):  0    3.0000000000  100.0000000000
  1  537.4654842999   -0.2254827711    0.2820958681   -0.2424203425
  2  214.7280855807   -0.2112694385    0.3031950732   -0.2589113369
  3  111.4461646031   -0.2047684684    0.3114512359   -0.2660487211
  4   57.7393944033   -0.2013056753    0.3157781989   -0.2698901558
  5   29.8120993670   -0.1995701427    0.3179353179   -0.2718414940
  6   15.2900770756   -0.1987217522    0.3189853766   -0.2728079371
  7    7.7387185466   -0.1983116029    0.3194906733   -0.2732812799
  8    3.8120572281   -0.1981142618    0.3197325181   -0.2735121253
  9    1.7702139201   -0.1980194628    0.3198480134   -0.2736246301
 10    0.7084643782   -0.1979739171    0.3199031408   -0.2736795313
 11    0.1563583683   -0.1979520107    0.3199294648   -0.2737063879
 12   -0.1307352713   -0.1979414564    0.3199420468   -0.2737195666
 13   -0.2800234226   -0.1979363608    0.3199480681   -0.2737260566
 14   -0.3576530938   -0.1979338951    0.3199509539   -0.2737292650
 15   -0.3980204917   -0.1979326989    0.3199523390   -0.2737308575
 16   -0.4190115498   -0.1979321171    0.3199530049   -0.2737316511
 17   -0.4299269194   -0.1979318334    0.3199533256   -0.2737320484
 18   -0.4356029284   -0.1979316946    0.3199534802   -0.2737322480
 19   -0.4385544652   -0.1979316266    0.3199535549   -0.2737323488
 20   -0.4400892722   -0.1979315931    0.3199535911   -0.2737323998
 21   -0.4408873768   -0.1979315766    0.3199536086   -0.2737324258
 22   -0.4413023942   -0.1979315685    0.3199536171   -0.2737324391
 23   -0.4415182051   -0.1979315644    0.3199536212   -0.2737324459
 24   -0.4416304277   -0.1979315624    0.3199536232   -0.2737324494
 25   -0.4416887841   -0.1979315614    0.3199536241   -0.2737324512
 26   -0.4417191298   -0.1979315609    0.3199536246   -0.2737324521
 27   -0.4417349097   -0.1979315607    0.3199536248   -0.2737324526
 28   -0.4417431154   -0.1979315606    0.3199536250   -0.2737324529
 29   -0.4417473824   -0.1979315605    0.3199536250   -0.2737324530
 30   -0.4417496013   -0.1979315605    0.3199536250   -0.2737324531
 31   -0.4417507551   -0.1979315605    0.3199536250   -0.2737324531
 32   -0.4417513551   -0.1979315604    0.3199536251   -0.2737324531
 33   -0.4417516671   -0.1979315604    0.3199536251   -0.2737324531
 34   -0.4417518294   -0.1979315604    0.3199536251   -0.2737324531
 35   -0.4417519137   -0.1979315604    0.3199536251   -0.2737324531
Atom SCF converged after  35 iterations to a total energy of     -0.44175191
NGWF initialisation ...... done
============ Calculation of NGWF S^-1 using Hotelling algorithm ================ 
         Iteration  |  Frobenius norm and Maximum abs value    (of I-S*S_n^-1)   
               1       0.24229899E+01     0.87479084E+00
               2       0.21956295E+01     0.77130955E+00
               3       0.19289696E+01     0.61739698E+00
               4       0.16400215E+01     0.53537346E+00
               5       0.13343435E+01     0.47659432E+00
               6       0.10209171E+01     0.39485701E+00
               7       0.69142077E+00     0.27312783E+00
               8       0.33802597E+00     0.13149518E+00
               9       0.82416690E-01     0.30773943E-01
              10       0.51507345E-02     0.17392278E-02
              11       0.22618683E-04     0.80996448E-05
              12       0.49321547E-09     0.17981272E-09
              13       0.17164696E-14     0.13322676E-14
================================================================================
Up spin density kernel initialisation ... 
======= Optimisation of K by Palser-Manolopoulos canonical purification ======== 
         Iteration  |  Band structure energy |    c_n   
               1          -1.53120152253796    0.4704851
               2          -1.72170016894136    0.5038784
               3          -1.90380160242874    0.5333337
               4          -2.02679077485752    0.5272395
               5          -2.11243290555972    0.5132609
               6          -2.15870829987581    0.5040174
               7          -2.17291991537846    0.5002007
               8          -2.17448478223274    0.5000003
               9          -2.17450421926701    0.5000000
              10          -2.17450422227726    0.8903986
              11          -2.17450422227726    0.8903986
Termination criterion satisfied: band energy change below threshold.
Final occupancy bounds: [    0.00000000000000:    1.00000000000000]
Closest occupancy to 0.5:     1.00000000000000
================================================================================
... done

Writing density kernel to file "water.dkn" ... done
   Initial electron number for spin 1:       8.00000000
     Final electron number for spin 1:       8.00000000
................................................................................
<<<<<<<<<<<<<<<< Penalty functional density kernel optimisation >>>>>>>>>>>>>>>>
~~~~~~~~~~~~~~~~~~~~~~~~~~~~~~~~~~~~~~~~~~~~~~~~~~~~~~~~~~~~~~~~~~~~~~~~~~~~~~~~
iter|       energy      |   rms grad  |  commutator |LScoef|CGcoef|      Ne    |
      Q0=E0+P0:     -16.503582228924=    -16.503582228924+      0.000000000000
    Trial step:       1.000000000000
            G0:      -7.425519430764
WARNING: minimum value of charge density: -0.2468
      Q1=E1+P1:     150.838594932583=    -22.054233410006+    172.892828342588
Quadratic term:    -174.767696592271
   Linear term:      -7.425519430764
  Optimal step:       0.021243970069
 Predicted min:     -16.582455985190
    !!! Quadratic minimum step length accepted !!!
 1    -16.50358222892447 0.34062257868 0.03455934352 0.0212  0.000    8.00000000
WARNING: minimum value of charge density: -0.0002
      Q0=E0+P0:     -16.647372674268=    -16.661433863351+      0.014061189083
    Trial step:       0.145753113410
            G0:      -0.049618714236
WARNING: minimum value of charge density: -0.0003
      Q1=E1+P1:     -16.654392912807=    -16.669217431044+      0.014824518237
Quadratic term:      -0.000211843544
   Linear term:      -0.007232082083
  Optimal step:       2.487917401476
 Predicted min:     -16.709096305562
    !!! Quadratic minimum step length accepted !!!
 2    -16.66143386335097 0.27780029762 0.03974306006 2.4879 -0.808    8.00000000
WARNING: minimum value of charge density: -0.0008
      Q0=E0+P0:     -16.697843071804=    -16.764743328966+      0.066900257163
    Trial step:       0.602180792762
            G0:      -4.570847807507
WARNING: minimum value of charge density: -0.0331
      Q1=E1+P1:       4.065224209949=    -19.924098003823+     23.989322213773
Quadratic term:     -23.515544038074
   Linear term:      -2.752476756321
  Optimal step:       0.035242404609
 Predicted min:     -16.778386905723
    !!! Quadratic minimum step length accepted !!!
 3    -16.76474332896619 0.26917489669 0.05218268111 0.0352  4.388    8.00000000
WARNING: minimum value of charge density: -0.0011

======================== Penalty functional minimisation =======================
   Final total energy     :     -16.973890895510
   Final penalty energy   :       0.146361444094
   RMS occupancy error    :       0.067630
   Occupancy bounds       : [-0.080, 1.092]
================================================================================

Finished density kernel iterations (   3)

Writing density kernel to file "water.dkn" ... done

################################################################################
########################### NGWF CG iteration  001 #############################
################################################################################
****** Reciprocal space K.E. preconditioning with k_zero =  3.0000 a0^-1 *******
   Initial electron number for spin 1:       8.00000000
     Final electron number for spin 1:       8.00000000

=================== Penalty functional idempotency correction ==================
 RMS occupancy error at iteration   1:  0.067630 (step -0.3995 Ne1=      8.0000)
 RMS occupancy error at iteration   2:  0.002537 (step -0.4959 Ne1=      8.0000)
 RMS occupancy error at iteration   3:  0.000018 (step -0.5000 Ne1=      8.0000)
            Final RMS occupancy error   :  0.000000 (Ne1=      8.0000)
               Final occupancy bounds   : [  0.0000,  1.0000]
================================================================================

................................................................................
<<<<<<<<<<<<<< LNV (Original version) density kernel optimisation >>>>>>>>>>>>>>
~~~~~~~~~~~~~~~~~~~~~~~~~~~~~~~~~~~~~~~~~~~~~~~~~~~~~~~~~~~~~~~~~~~~~~~~~~~~~~~~
iter|       energy      |  rms DeltaK |  commutator |LScoef|CGcoef|      Ne    |
      ideal mu1:      -0.523292920533
             Q0:     -16.489485813986
             G0:      -0.195760260954
   RMS gradient:       0.055306003991
    Initial Ne1:       8.00000000
      Final Ne1:       8.00000000

=================== Penalty functional idempotency correction ==================
 RMS occupancy error at iteration   1:  0.000344 (step -0.4992 Ne1=      8.0000)
            Final RMS occupancy error   :  0.000000 (Ne1=      8.0000)
               Final occupancy bounds   : [ -0.0000,  1.0000]
================================================================================

 1    -16.48948581398615 0.00000000000 0.05530600366 0.1000  0.000    8.00000000
      ideal mu1:      -0.505413698902
             Q0:     -16.505706681080
             G0:      -0.141067031466
   RMS gradient:       0.036464611027
     Trial step:       0.500000000000
             Q1:     -16.478183314452
 Quadratic coef:       0.098056882361
 Linear coef   :      -0.070533515733
           Qmin:     -16.518390586385
Quadratic minimum step length (  0.179828060089) accepted
    Initial Ne1:       8.00000071
      Final Ne1:       8.00000000

=================== Penalty functional idempotency correction ==================
 RMS occupancy error at iteration   1:  0.001845 (step -0.4959 Ne1=      8.0000)
 RMS occupancy error at iteration   2:  0.000003 (step -0.5000 Ne1=      8.0000)
            Final RMS occupancy error   :  0.000000 (Ne1=      8.0000)
               Final occupancy bounds   : [  0.0000,  1.0000]
================================================================================

 2    -16.50570668107977 0.00122350163 0.03646461241 0.1798  0.435    8.00000000
      ideal mu1:      -0.466981435564
             Q0:     -16.518290491624
             G0:      -0.001584554649
   RMS gradient:       0.004982629743
     Trial step:       0.299856682507
             Q1:     -16.518565158764
 Quadratic coef:       0.000200472160
 Linear coef   :      -0.000475139300
           Qmin:     -16.518572023676
Quadratic minimum step length (  0.355345336005) accepted
    Initial Ne1:       8.00000003
      Final Ne1:       8.00000000

=================== Penalty functional idempotency correction ==================
 RMS occupancy error at iteration   1:  0.000139 (step -0.4997 Ne1=      8.0000)
            Final RMS occupancy error   :  0.000000 (Ne1=      8.0000)
               Final occupancy bounds   : [ -0.0000,  1.0000]
================================================================================

 3    -16.51829049162389 0.00263030578 0.00498262974 0.3553  0.019    8.00000000
      ideal mu1:      -0.464691055881
             Q0:     -16.518572608470
             G0:      -0.000123815162
   RMS gradient:       0.001388702978
     Trial step:       0.326424070189
             Q1:     -16.518603231772
 Quadratic coef:       0.000009792947
 Linear coef   :      -0.000040416249
           Qmin:     -16.518614308714
Quadratic minimum step length (  0.673588656815) accepted
    Initial Ne1:       8.00000063
      Final Ne1:       8.00000000

=================== Penalty functional idempotency correction ==================
 RMS occupancy error at iteration   1:  0.000033 (step -0.4999 Ne1=      8.0000)
            Final RMS occupancy error   :  0.000000 (Ne1=      8.0000)
               Final occupancy bounds   : [ -0.0000,  1.0000]
================================================================================

 4    -16.51857260847009 0.00003690690 0.00138870302 0.6736  0.078    8.00000000
      ideal mu1:      -0.466273982300
             Q0:     -16.518614304862
             G0:      -0.000064700663
   RMS gradient:       0.001005788887
     Trial step:       0.468908894127
             Q1:     -16.518626487974
 Quadratic coef:       0.000018155604
 Linear coef   :      -0.000030338716
           Qmin:     -16.518626979154
Quadratic minimum step length (  0.391782438214) accepted
    Initial Ne1:       8.00000021
      Final Ne1:       8.00000000

=================== Penalty functional idempotency correction ==================
 RMS occupancy error at iteration   1:  0.000016 (step -0.5000 Ne1=      8.0000)
            Final RMS occupancy error   :  0.000000 (Ne1=      8.0000)
               Final occupancy bounds   : [  0.0000,  1.0000]
================================================================================

 5    -16.51861430486223 0.00000565115 0.00100578889 0.3918  0.525    8.00000000
      ideal mu1:      -0.465954316559
             Q0:     -16.518626983709
             G0:      -0.000003695821
   RMS gradient:       0.000240254385
     Trial step:       0.428614360283
             Q1:     -16.518627761847
 Quadratic coef:       0.000000805944
 Linear coef   :      -0.000001584082
           Qmin:     -16.518627762087
Quadratic minimum step length (  0.421220511120) accepted
    Initial Ne1:       7.99999999
      Final Ne1:       8.00000000

=================== Penalty functional idempotency correction ==================
 RMS occupancy error at iteration   1:  0.000001 (step -0.5000 Ne1=      8.0000)
            Final RMS occupancy error   :  0.000000 (Ne1=      8.0000)
               Final occupancy bounds   : [  0.0000,  1.0000]
================================================================================

 6    -16.51862698370936 0.00000248768 0.00024025438 0.4212  0.057    8.00000000
      ideal mu1:      -0.465800551543
             Q0:     -16.518627762113
             G0:      -0.000000461301
   RMS gradient:       0.000084898952
     Trial step:       0.424901353154
             Q1:     -16.518627844351
 Quadratic coef:       0.000000113769
 Linear coef   :      -0.000000196008
           Qmin:     -16.518627846536
Quadratic minimum step length (  0.366022534393) accepted
    Initial Ne1:       8.00000000
      Final Ne1:       8.00000000

=================== Penalty functional idempotency correction ==================
 RMS occupancy error at iteration   1:  0.000000 (step -0.5000 Ne1=      8.0000)
            Final RMS occupancy error   :  0.000000 (Ne1=      8.0000)
               Final occupancy bounds   : [  0.0000,  1.0000]
================================================================================

 7    -16.51862776211262 0.00000010605 0.00008489895 0.3660  0.000    8.00000000
      ideal mu1:      -0.465909107386
             Q0:     -16.518627846536
             G0:      -0.000000074530
   RMS gradient:       0.000034125313
     Trial step:       0.394364641098
             Q1:     -16.518627866798
 Quadratic coef:       0.000000009130
 Linear coef   :      -0.000000029392
           Qmin:     -16.518627870191
Quadratic minimum step length (  0.634770934539) accepted
    Initial Ne1:       8.00000000
      Final Ne1:       8.00000000

=================== Penalty functional idempotency correction ==================
 RMS occupancy error at iteration   1:  0.000000 (step -0.5000 Ne1=      8.0000)
            Final RMS occupancy error   :  0.000000 (Ne1=      8.0000)
               Final occupancy bounds   : [  0.0000,  1.0000]
================================================================================

 8    -16.51862784653644 0.00000001055 0.00003412531 0.6348  0.162    8.00000000
      ideal mu1:      -0.465920826495
             Q0:     -16.518627870191
             G0:      -0.000000012735
   RMS gradient:       0.000014105736
     Trial step:       0.500331102150
             Q1:     -16.518627874753
 Quadratic coef:       0.000000001810
 Linear coef   :      -0.000000006372
           Qmin:     -16.518627875798
Quadratic minimum step length (  0.880598595593) accepted
    Initial Ne1:       8.00000000
      Final Ne1:       8.00000000

=================== Penalty functional idempotency correction ==================
 RMS occupancy error at iteration   1:  0.000000 (step -0.5000 Ne1=      8.0000)
            Final RMS occupancy error   :  0.000000 (Ne1=      8.0000)
               Final occupancy bounds   : [  0.0000,  1.0000]
================================================================================

 9    -16.51862787019145 0.00000000343 0.00001410574 0.8806  0.171    8.00000000
      ideal mu1:      -0.465907564728
10    -16.51862787579826 0.00000000084 0.00000771674 0.0000  0.000    8.00000000
Finished density kernel iterations (  10)

Writing density kernel to file "water.dkn" ... done

           ........................................................
           | *** NGWF optimisation not converged ***              |
           | RMS NGWF gradient =    0.00968730100061              |
           | Criteria not satisfied:                              |
           | -> RMS NGWF gradient higher than set threshold.      |
           ========================================================

------------------------------- NGWF line search -------------------------------
============ Calculation of NGWF S^-1 using Hotelling algorithm ================ 
         Iteration  |  Frobenius norm and Maximum abs value    (of I-S*S_n^-1)   
               1       0.20640479E-01     0.13390214E-01
               2       0.25270313E-03     0.17676797E-03
               3       0.40696264E-07     0.30920532E-07
               4       0.14150505E-14     0.77715612E-15
================================================================================
============ Calculation of NGWF S^-1 using Hotelling algorithm ================ 
         Iteration  |  Frobenius norm and Maximum abs value    (of I-S*S_n^-1)   
               1       0.23514707E-01     0.15032065E-01
               2       0.32393201E-03     0.22024251E-03
               3       0.65606466E-07     0.47758383E-07
               4       0.34121914E-14     0.25535130E-14
================================================================================
RMS gradient                =       0.00968730100061
Trial step length           =               0.122474
Gradient along search dir.  =         -1.85200740635
Functional at step 0        =     -16.51862787579826
Functional at step 1        =     -16.68675283984168
Functional predicted        =     -16.73775103114059
Selected quadratic step     =               0.236633
Conjugate gradients coeff.  =               0.000000
--------------------------- NGWF line search finished --------------------------
                                               
Writing NGWFs to file "water.tightbox_ngwfs"....  done

################################################################################
########################### NGWF CG iteration  002 #############################
################################################################################
****** Reciprocal space K.E. preconditioning with k_zero =  3.0000 a0^-1 *******
   Initial electron number for spin 1:       8.09644158
     Final electron number for spin 1:       8.00000000

=================== Penalty functional idempotency correction ==================
 RMS occupancy error at iteration   1:  0.008505 (step -0.4821 Ne1=      8.0000)
 RMS occupancy error at iteration   2:  0.000058 (step -0.5000 Ne1=      8.0000)
            Final RMS occupancy error   :  0.000000 (Ne1=      8.0000)
               Final occupancy bounds   : [  0.0000,  1.0000]
================================================================================

................................................................................
<<<<<<<<<<<<<< LNV (Original version) density kernel optimisation >>>>>>>>>>>>>>
~~~~~~~~~~~~~~~~~~~~~~~~~~~~~~~~~~~~~~~~~~~~~~~~~~~~~~~~~~~~~~~~~~~~~~~~~~~~~~~~
iter|       energy      |  rms DeltaK |  commutator |LScoef|CGcoef|      Ne    |
      ideal mu1:      -0.483165061728
             Q0:     -16.737622479115
             G0:      -0.019293547702
   RMS gradient:       0.017362651953
     Trial step:       0.663770190567
             Q1:     -16.739908306351
 Quadratic coef:       0.010520654599
 Linear coef   :      -0.012806481835
           Qmin:     -16.741519717054
Quadratic minimum step length (  0.403993915407) accepted
    Initial Ne1:       7.99999960
      Final Ne1:       8.00000000

=================== Penalty functional idempotency correction ==================
 RMS occupancy error at iteration   1:  0.000549 (step -0.4988 Ne1=      8.0000)
            Final RMS occupancy error   :  0.000000 (Ne1=      8.0000)
               Final occupancy bounds   : [ -0.0000,  1.0000]
================================================================================

 1    -16.73762247911470 0.00000000000 0.01736265122 0.4040  0.000    8.00000000
      ideal mu1:      -0.466532151719
             Q0:     -16.741502085050
             G0:      -0.000930733858
   RMS gradient:       0.003811119261
     Trial step:       0.517840823243
             Q1:     -16.741697189187
 Quadratic coef:       0.000286867850
 Linear coef   :      -0.000481971987
           Qmin:     -16.741704527566
Quadratic minimum step length (  0.435016978789) accepted
    Initial Ne1:       8.00000057
      Final Ne1:       8.00000000

=================== Penalty functional idempotency correction ==================
 RMS occupancy error at iteration   1:  0.000081 (step -0.4998 Ne1=      8.0000)
            Final RMS occupancy error   :  0.000000 (Ne1=      8.0000)
               Final occupancy bounds   : [ -0.0000,  1.0000]
================================================================================

 2    -16.74150208504999 0.00048715474 0.00381112011 0.4350  0.048    8.00000000
      ideal mu1:      -0.468546267248
             Q0:     -16.741704713016
             G0:      -0.000150599407
   RMS gradient:       0.001533540022
     Trial step:       0.474625695070
             Q1:     -16.741746825317
 Quadratic coef:       0.000029366048
 Linear coef   :      -0.000071478348
           Qmin:     -16.741748208436
Quadratic minimum step length (  0.577630692551) accepted
    Initial Ne1:       8.00000021
      Final Ne1:       8.00000000

=================== Penalty functional idempotency correction ==================
 RMS occupancy error at iteration   1:  0.000032 (step -0.4999 Ne1=      8.0000)
            Final RMS occupancy error   :  0.000000 (Ne1=      8.0000)
               Final occupancy bounds   : [ -0.0000,  1.0000]
================================================================================

 3    -16.74170471301604 0.00002655450 0.00153354002 0.5776  0.162    8.00000000
      ideal mu1:      -0.467339613682
             Q0:     -16.741748233212
             G0:      -0.000028685075
   RMS gradient:       0.000669140439
     Trial step:       0.523601345439
             Q1:     -16.741756930457
 Quadratic coef:       0.000006322299
 Linear coef   :      -0.000015019544
           Qmin:     -16.741757153492
Quadratic minimum step length (  0.621945709295) accepted
    Initial Ne1:       8.00000008
      Final Ne1:       8.00000000

=================== Penalty functional idempotency correction ==================
 RMS occupancy error at iteration   1:  0.000010 (step -0.5000 Ne1=      8.0000)
            Final RMS occupancy error   :  0.000000 (Ne1=      8.0000)
               Final occupancy bounds   : [  0.0000,  1.0000]
================================================================================

 4    -16.74174823321235 0.00000636448 0.00066914044 0.6219  0.190    8.00000000
      ideal mu1:      -0.467052636867
             Q0:     -16.741757155531
             G0:      -0.000003424224
   RMS gradient:       0.000231260153
     Trial step:       0.570658926310
             Q1:     -16.741758183423
 Quadratic coef:       0.000000926171
 Linear coef   :      -0.000001954064
           Qmin:     -16.741758186216
Quadratic minimum step length (  0.601996575382) accepted
    Initial Ne1:       8.00000000
      Final Ne1:       8.00000000

=================== Penalty functional idempotency correction ==================
 RMS occupancy error at iteration   1:  0.000002 (step -0.5000 Ne1=      8.0000)
            Final RMS occupancy error   :  0.000000 (Ne1=      8.0000)
               Final occupancy bounds   : [  0.0000,  1.0000]
================================================================================

 5    -16.74175715553088 0.00000136457 0.00023126015 0.6020  0.119    8.00000000
      ideal mu1:      -0.467294138364
             Q0:     -16.741758186245
             G0:      -0.000000307315
   RMS gradient:       0.000069297393
     Trial step:       0.586118349269
             Q1:     -16.741758303663
 Quadratic coef:       0.000000062705
 Linear coef   :      -0.000000180123
           Qmin:     -16.741758315598
Quadratic minimum step length (  0.841828580660) accepted
    Initial Ne1:       8.00000000
      Final Ne1:       8.00000000

=================== Penalty functional idempotency correction ==================
 RMS occupancy error at iteration   1:  0.000000 (step -0.5000 Ne1=      8.0000)
            Final RMS occupancy error   :  0.000000 (Ne1=      8.0000)
               Final occupancy bounds   : [  0.0000,  1.0000]
================================================================================

 6    -16.74175818624522 0.00000014773 0.00006929739 0.8418  0.090    8.00000000
      ideal mu1:      -0.467307742130
             Q0:     -16.741758315598
             G0:      -0.000000061880
   RMS gradient:       0.000031094515
     Trial step:       0.702432329882
             Q1:     -16.741758325967
 Quadratic coef:       0.000000033097
 Linear coef   :      -0.000000043466
           Qmin:     -16.741758329869
Quadratic minimum step length (  0.461245006345) accepted
    Initial Ne1:       8.00000000
      Final Ne1:       8.00000000

=================== Penalty functional idempotency correction ==================
 RMS occupancy error at iteration   1:  0.000000 (step -0.5000 Ne1=      8.0000)
            Final RMS occupancy error   :  0.000000 (Ne1=      8.0000)
               Final occupancy bounds   : [  0.0000,  1.0000]
================================================================================

 7    -16.74175831559819 0.00000001783 0.00003109452 0.4612  0.000    8.00000000
      ideal mu1:      -0.467282634354
             Q0:     -16.741758329869
             G0:      -0.000000014695
   RMS gradient:       0.000015152860
     Trial step:       0.569204185204
             Q1:     -16.741758333776
 Quadratic coef:       0.000000004457
 Linear coef   :      -0.000000008364
           Qmin:     -16.741758333793
[...]
Quadratic minimum step length (  0.108543235814) accepted
    Initial Ne1:       8.00000000
      Final Ne1:       8.00000000

=================== Penalty functional idempotency correction ==================
 RMS occupancy error at iteration   1:  0.000000 (step -0.5000 Ne1=      8.0000)
            Final RMS occupancy error   :  0.000000 (Ne1=      8.0000)
               Final occupancy bounds   : [  0.0000,  1.0000]
================================================================================

 5    -16.77703911176974 0.00000000000 0.00000007817 0.1085  0.037    8.00000000
      ideal mu1:      -0.512302838564
             Q0:     -16.777039111770
             G0:      -0.000000000000
   RMS gradient:       0.000000058915
     Trial step:       0.181495290446
             Q1:     -16.777039111770
 Quadratic coef:       0.000000000000
 Linear coef   :      -0.000000000000
           Qmin:     -16.777039111770
Quadratic minimum step length (  0.153294482126) accepted
    Initial Ne1:       8.00000000
      Final Ne1:       8.00000000

=================== Penalty functional idempotency correction ==================
 RMS occupancy error at iteration   1:  0.000000 (step -0.5000 Ne1=      8.0000)
            Final RMS occupancy error   :  0.000000 (Ne1=      8.0000)
               Final occupancy bounds   : [  0.0000,  1.0000]
================================================================================

 6    -16.77703911176975 0.00000000000 0.00000005891 0.1533  0.568    8.00000000
      ideal mu1:      -0.512302809593
             Q0:     -16.777039111769
             G0:      -0.000000000000
   RMS gradient:       0.000000027989
     Trial step:       0.166799959704
             Q1:     -16.777039111770
 Quadratic coef:      -0.000000000000
 Linear coef   :      -0.000000000000
         Quadratic fit unsuccessful: proceeding to cubic fit
             Q2:     -16.777039111770
  Cubic LS coeff:       0.260300742734
Predicted energy:     -16.777039111770
Cubic minimum step length accepted
    Initial Ne1:       8.00000000
      Final Ne1:       8.00000000

=================== Penalty functional idempotency correction ==================
 RMS occupancy error at iteration   1:  0.000000 (step -0.5000 Ne1=      8.0000)
            Final RMS occupancy error   :  0.000000 (Ne1=      8.0000)
               Final occupancy bounds   : [  0.0000,  1.0000]
================================================================================

 7    -16.77703911176948 0.00000000000 0.00000002799 0.2603  0.226    8.00000000
      ideal mu1:      -0.512302794907
             Q0:     -16.777039111770
             G0:      -0.000000000000
   RMS gradient:       0.000000017630
     Trial step:       0.208370231557
             Q1:     -16.777039111770
 Quadratic coef:       0.000000000000
 Linear coef   :      -0.000000000000
           Qmin:     -16.777039111770
Quadratic minimum step length (  0.001761629481) accepted
    Initial Ne1:       8.00000000
      Final Ne1:       8.00000000

=================== Penalty functional idempotency correction ==================
 RMS occupancy error at iteration   1:  0.000000 (step -0.5000 Ne1=      8.0000)
            Final RMS occupancy error   :  0.000000 (Ne1=      8.0000)
               Final occupancy bounds   : [  0.0000,  1.0000]
================================================================================

 8    -16.77703911176977 0.00000000000 0.00000001763 0.0018  0.000    8.00000000
      ideal mu1:      -0.512302794963
             Q0:     -16.777039111770
             G0:      -0.000000000000
   RMS gradient:       0.000000017579
     Trial step:       0.019159100783
             Q1:     -16.777039111770
 Quadratic coef:      -0.000000000000
 Linear coef   :      -0.000000000000
         Quadratic fit unsuccessful: proceeding to cubic fit
             Q2:     -16.777039111770
  Cubic LS coeff:       0.018619120645
Predicted energy:     -16.777039111770
Cubic minimum step length accepted
    Initial Ne1:       8.00000000
      Final Ne1:       8.00000000

=================== Penalty functional idempotency correction ==================
 RMS occupancy error at iteration   1:  0.000000 (step -0.5000 Ne1=      8.0000)
            Final RMS occupancy error   :  0.000000 (Ne1=      8.0000)
               Final occupancy bounds   : [  0.0000,  1.0000]
================================================================================

 9    -16.77703911176970 0.00000000000 0.00000001758 0.0186  0.994    8.00000000
      ideal mu1:      -0.512302796150
10    -16.77703911176973 0.00000000000 0.00000001651 0.0000  0.000    8.00000000
Finished density kernel iterations (  10)

Writing density kernel to file "water.dkn" ... done

           ........................................................
           | *** NGWF optimisation converged ***                  |
           | RMS NGWF gradient =    0.00000168775712              |
           | Maximum change in energy =  0.00000000010090 / atom  |
           | Criteria satisfied:                                  |
           | -> RMS NGWF gradient lower than set threshold.       |
           | -> Energy change per atom lower than set threshold.  |
           ========================================================

================================================================================
           ---------------- ENERGY COMPONENTS (Eh) ----------------
           | Kinetic                    :       10.87801439794361 |
           | Pseudopotential (local)    :      -46.10858309772791 |
           | Pseudopotential (non-local):       -3.19083598025558 |
           | Hartree                    :       19.83873397427131 |
           | Exchange-correlation       :       -4.13021765397197 |
           | Ewald                      :        5.93584924797081 |
           | Total                      :      -16.77703911176973 |
           --------------------------------------------------------
           ------ LOCAL ENERGY COMPONENTS FROM MATRIX TRACES ------
           | Pseudopotential (local)    :      -46.10858309772838 |
           | Hartree                    :       19.83873397427149 |
           --------------------------------------------------------
           Integrated density           :        7.99999999999991
           Integrated density tr(KS)    :        8.00000000000000
================================================================================


                    <<<<< CALCULATION SUMMARY >>>>>
|ITER|    RMS GRADIENT   |     TOTAL ENERGY    |   step   |     Epredicted      
   1     0.00968730100061    -16.51862787579826   0.236633    -16.73775103114059
   2     0.00232652984677    -16.74175833467190   0.419828    -16.76460940662594
   3     0.00139332387227    -16.76533142649970   0.416228    -16.77354227583039
   4     0.00081289216829    -16.77372180671385   0.389534    -16.77631148055179
   5     0.00042186982699    -16.77633617894015   0.310342    -16.77688118875116
   6     0.00022261988504    -16.77688138735373   0.300313    -16.77702828221807
   7     0.00007503890669    -16.77702803476059   0.161055    -16.77703696860965
   8     0.00003299059762    -16.77703703189706   0.066801    -16.77703775438475
   9     0.00002610511908    -16.77703778114240   0.111485    -16.77703853082343
  10     0.00002051616783    -16.77703859394634   0.034035    -16.77703874718867
  11     0.00001830273489    -16.77703876395336   0.015340    -16.77703882065381
  12     0.00001689260445    -16.77703882778616   0.008510    -16.77703885510067
  13     0.00001583021370    -16.77703885886233   0.066057    -16.77703902220458
  14     0.00001174081708    -16.77703904989437   0.018547    -16.77703907938898
  15     0.00000959817292    -16.77703908490398   0.007696    -16.77703909342051
  16     0.00000823089179    -16.77703909510337   0.003898    -16.77703909832994
  17     0.00000725962477    -16.77703909898855   0.015908    -16.77703910726113
  18     0.00000525948364    -16.77703910902540   0.004382    -16.77703911047491
  19     0.00000415141074    -16.77703911079488   0.001749    -16.77703911117019
  20     0.00000346257731    -16.77703911125669   0.000848    -16.77703911138482
  21     0.00000298764565    -16.77703911141528   0.002809    -16.77703911166266
  22     0.00000214612533    -16.77703911171797   0.000756    -16.77703911175951
  23     0.00000168775712    -16.77703911176973  <-- CG                         
 
===================== Density of States (DOS) calculation ======================
Writing "water_DOS.txt" ...  done
================================================================================
 
Writing bands to file "water.val_bands" ... done

=================== Orbital energy and occupancy information ===================

      Total number of orbitals:       8
   Number of occupied orbitals:       4
                 Occupancy sum:       4.000000000
                 HOMO-LUMO gap:       0.276620833 Eh
                 Mid-gap level:      -0.119205967 Eh

                        Orbital | Energy (Eh) | Occupancy
                            1    -0.966330908   1.0000000
                            2    -0.469144366   1.0000000
                            3    -0.356219527   1.0000000
                            4    -0.257516383   1.0000000
                        .......   --- gap ---   .........
                            5     0.019104450   0.0000000
                            6     0.108430955   0.0000000
                            7     0.355626203   0.0000000
                            8     0.418085757   0.0000000

================================================================================

********************* Unconstrained **********************
********************* Ewald forces  **********************
*                                                        *
* Element  Atom         Cartesian components (Eh/a)      *
* ------------------------------------------------------ *
*                       x            y            z      *
*                                                        *
*    O       1     -2.30074936   0.13293069   0.13450602 *
*    H       2      1.16935963  -0.93070254   1.14015809 *
*    H       3      1.13138973   0.79777185  -1.27466411 *
*                                                        *
**********************************************************
TOTAL:             -0.00000000   0.00000000  -0.00000000
 
********************* Unconstrained **********************
***************** Local potential forces *****************
*                                                        *
* Element  Atom         Cartesian components (Eh/a)      *
* ------------------------------------------------------ *
*                       x            y            z      *
*                                                        *
*    O       1      1.49693993  -0.08643466  -0.08352479 *
*    H       2     -1.16865548   0.92205141  -1.13140960 *
*    H       3     -1.12852325  -0.78709896   1.26730485 *
*                                                        *
**********************************************************
TOTAL:             -0.80023880   0.04851779   0.05237047
********************* Unconstrained **********************
*************** Non-local potential forces ***************
*                                                        *
* Element  Atom         Cartesian components (Eh/a)      *
* ------------------------------------------------------ *
*                       x            y            z      *
*                                                        *
*    O       1      0.77326285  -0.04359695  -0.02293113 *
*    H       2      0.00000000   0.00000000   0.00000000 *
*    H       3      0.00000000   0.00000000   0.00000000 *
*                                                        *
**********************************************************
TOTAL:              0.77326285  -0.04359695  -0.02293113
 
********************* Unconstrained **********************
************ NGWF non self-consistent forces *************
*                                                        *
* Element  Atom         Cartesian components (Eh/a)      *
* ------------------------------------------------------ *
*                       x            y            z      *
*                                                        *
*    O       1      0.00358240  -0.00063246  -0.00283030 *
*    H       2     -0.00011561   0.00011613  -0.00018962 *
*    H       3     -0.00007621  -0.00014183   0.00007427 *
*                                                        *
**********************************************************
TOTAL:              0.00339058  -0.00065817  -0.00294565
 
********************* Unconstrained **********************
****** Correction to ensure the total force is zero ******
*                                                        *
* Element  Atom         Cartesian components (Eh/a)      *
* ------------------------------------------------------ *
*                       x            y            z      *
*                                                        *
*    O       1     -0.00786179   0.00142089   0.00883123 *
*    H       2     -0.00786179   0.00142089   0.00883123 *
*    H       3     -0.00786179   0.00142089   0.00883123 *
*                                                        *
**********************************************************
TOTAL:             -0.02358537   0.00426267   0.02649369

********************* Unconstrained **********************
************************* Forces *************************
*                                                        *
* Element  Atom         Cartesian components (Eh/a)      *
* ------------------------------------------------------ *
*                       x            y            z      *
*                                                        *
*    O       1     -0.01910240   0.00084573   0.01638857 *
*    H       2      0.00845033  -0.00995589  -0.00027235 *
*    H       3      0.01065207   0.00911016  -0.01611622 *
*                                                        *
**********************************************************
* TOTAL:            0.00000000   0.00000000   0.00000000 *
**********************************************************

------------------------------ TIMING INFORMATION ------------------------------
AVERAGE TIME:    6161.091s on      1 node(s)                                    
TOTAL TIME:      6161.091s on      1 node(s)                                    
================== AVERAGE TIMINGS FROM ALL NODES (CUMULATIVE) =================
|| TAG                                    #calls    cpu time   %total  Gflops ||
|| work_imbalance                       :     1        0.00s   0.000%  ------ ||
|| dense_eigensolve                     :     1        0.00s   0.000%  ------ ||
|| ewald_calculate_forces_realspace     :     1        0.00s   0.000%  ------ ||
|| ewald_calculate_energy               :     1        0.00s   0.000%  ------ ||
|| palser_mano_kernel_optimise          :     1        0.00s   0.000%  ------ ||
|| ewald_calculate_forces_recipspace    :     1        0.00s   0.000%  ------ ||
|| sparse_init                          :     1        0.00s   0.000%  ------ ||
|| ewald_calculate_forces               :     1        0.00s   0.000%  ------ ||
|| pseudopotentials_nonlocal_mat        :    45        0.01s   0.000%  ------ ||
|| ngwf_gradient_coeffs                 :    23        0.01s   0.000%  ------ ||
|| integrals_brappd_ketppd              :    45        0.01s   0.000%  ------ ||
|| basis_extract_function_from_box      :   368        0.02s   0.000%  ------ ||
|| restart_ngwfs_tightbox_output        :    22        0.02s   0.000%  ------ ||
|| restart_kernel_write                 :    25        0.02s   0.000%  ------ ||
|| sparse_hotelling_invert              :    45        0.04s   0.001%  ------ ||
|| kernel_purify                        :   740        0.05s   0.001%  ------ ||
|| kernel_fix                           :   230        0.06s   0.001%  ------ ||
|| lnv_gradient_norm                    :   230        0.06s   0.001%  ------ ||
|| eigenstates_calculate                :     1        0.07s   0.001%  ------ ||
|| integrals_grad                       :     1        0.07s   0.001%  ------ ||
|| nonsc_forces_ngwfs_calc              :     1        0.07s   0.001%  ------ ||
|| sparse_trace                         :  6042        0.11s   0.002%  ------ ||
|| projectors_func_grad_ovlp_box        :     3        0.14s   0.002%  ------ ||
|| pseudo_nl_calculate_forces           :     1        0.14s   0.002%  ------ ||
|| sparse_product                       :  7802        0.17s   0.003%  ------ ||
|| integrals_locpot_mat_els_batch       :   245        0.29s   0.005%  ------ ||
|| basis_dot_function_with_box          : 18500        0.30s   0.005%  ------ ||
|| pseudo_make_structure_factor         :     1        0.52s   0.008%  ------ ||
|| density_batch_row_sums               :   501        0.60s   0.010%  ------ ||
|| basis_add_function_to_box            : 37952        0.65s   0.011%  ------ ||
|| density_initial_guess_real           :     1        0.65s   0.011%  ------ ||
|| projectors_init_fftbox_recip         :    71        1.65s   0.027%  ------ ||
|| pseudopotentials_local_on_grid       :     1        1.92s   0.031%  ------ ||
|| projectors_func_ovlp_box             :    45        1.93s   0.031%  ------ ||
|| basis_copy_function_to_box           :  6512        2.05s   0.033%  ------ ||
|| integrals_kinetic                    :    45        2.24s   0.036%  ------ ||
|| fourier_apply_box_pair               :   552        2.42s   0.039%   3.297 ||
|| pseudo_local_calculate_forces        :     1        2.64s   0.043%  ------ ||
|| forces_calculate                     :     1        3.17s   0.051%  ------ ||
|| projectors_gradient_batch            :    23        4.77s   0.077%  ------ ||
|| cell_grid_extract_box                :  2190        7.54s   0.122%  ------ ||
|| properties_calculate                 :     1       12.85s   0.209%  ------ ||
|| cell_grid_deposit_box                :  4011       15.41s   0.250%  ------ ||
|| density_fftbox_deposit_to_cell       :  4008       15.45s   0.251%  ------ ||
|| ngwf_gradient_batch                  :    23       25.91s   0.421%  ------ ||
|| ngwf_gradient_lnv                    :    23       27.87s   0.452%  ------ ||
|| hamiltonian_energy_components        :     5       67.97s   1.103%  ------ ||
|| penalty_denskernel_optimise_cg       :     1       84.37s   1.369%  ------ ||
|| potential_apply_to_ngwf_batch        :   245      105.98s   1.720%  ------ ||
|| integrals_locpot_dbl_grid            :   245      106.29s   1.725%  ------ ||
|| fourier_apply_box                    : 13560      185.03s   3.003%   5.200 ||
|| density_fftbox_interpolate_multiply  :  4008      193.24s   3.136%  ------ ||
|| density_batch_interp_deposit         :   501      212.32s   3.446%  ------ ||
|| density_on_dbl_grid                  :   501      236.77s   3.843%  ------ ||
|| hartree_on_grid                      :   501      941.39s  15.280%  ------ ||
|| fourier_apply_cell_backward          :  2506     1865.35s  30.276%   1.499 ||
|| fourier_apply_cell_forward           :  2506     2789.20s  45.271%   1.002 ||
|| xc_energy_potential                  :   501     4639.91s  75.310%  ------ ||
|| lnv_denskernel_optimise_cg           :    23     5684.48s  92.264%  ------ ||
|| ngwf_cg_optimise                     :     1     6045.13s  98.118%  ------ ||
|| total_time                           :     1     6161.09s 100.000%  ------ ||
================================================================================
Overhead of generating timer report: 
- 0 ms averaging over threads,
- 0 ms ensuring consistency across MPI ranks,
- 0 ms printing in order.

Job completed: 09-03-2015 22:19 (-0000)

